# p  FACE_DATA 249
#  x  y  z  p
0.999981 -0.000213631 0.5 1.11567
0.999845 -0.000663127 0.5 1.08427
0.99948 -0.00110792 0.5 1.07465
0.998835 -0.00139797 0.5 1.12925
0.99794 -0.00154865 0.5 1.12446
0.996827 -0.00170419 0.5 1.1226
0.995451 -0.00189636 0.5 1.12046
0.993749 -0.00213358 0.5 1.11725
0.991644 -0.0024263 0.5 1.11416
0.989039 -0.00278739 0.5 1.11088
0.986181 -0.00318229 0.5 1.10767
0.983194 -0.00359364 0.5 1.10382
0.979871 -0.00404935 0.5 1.09942
0.976149 -0.00455766 0.5 1.0944
0.971946 -0.00512882 0.5 1.08943
0.967167 -0.00577474 0.5 1.08434
0.961704 -0.00650854 0.5 1.07949
0.955448 -0.00734296 0.5 1.07429
0.948306 -0.008288 0.5 1.06902
0.940222 -0.00934793 0.5 1.06246
0.93121 -0.0105177 0.5 1.05549
0.921364 -0.0117817 0.5 1.0464
0.910835 -0.0131174 0.5 1.03735
0.899795 -0.0145004 0.5 1.03019
0.888401 -0.0159093 0.5 1.02516
0.876775 -0.0173279 0.5 1.02271
0.865003 -0.0187451 0.5 1.01733
0.853139 -0.0201537 0.5 1.00931
0.84122 -0.0215496 0.5 1.00024
0.829266 -0.0229301 0.5 0.994739
0.817291 -0.0242937 0.5 0.99337
0.805302 -0.0256397 0.5 0.989983
0.793304 -0.0269675 0.5 0.98305
0.7813 -0.0282768 0.5 0.974592
0.769293 -0.0295674 0.5 0.970672
0.757283 -0.030839 0.5 0.970246
0.745271 -0.0320915 0.5 0.966115
0.733259 -0.0333248 0.5 0.957283
0.721246 -0.0345385 0.5 0.951544
0.709233 -0.0357325 0.5 0.949991
0.697222 -0.0369064 0.5 0.947237
0.685211 -0.03806 0.5 0.939982
0.673203 -0.0391929 0.5 0.933917
0.661197 -0.0403047 0.5 0.932256
0.649194 -0.0413949 0.5 0.929605
0.637194 -0.0424632 0.5 0.922055
0.625198 -0.0435089 0.5 0.916053
0.613207 -0.0445315 0.5 0.914728
0.601221 -0.0455305 0.5 0.911359
0.58924 -0.0465051 0.5 0.903016
0.577265 -0.0474547 0.5 0.89764
0.565296 -0.0483784 0.5 0.896685
0.553335 -0.0492757 0.5 0.892091
0.541382 -0.0501455 0.5 0.883348
0.529437 -0.050987 0.5 0.879111
0.517502 -0.0517993 0.5 0.877611
0.505576 -0.0525814 0.5 0.870762
0.493661 -0.0533322 0.5 0.86348
0.481757 -0.0540507 0.5 0.860467
0.469865 -0.0547356 0.5 0.856687
0.457986 -0.0553858 0.5 0.849119
0.446121 -0.0560001 0.5 0.841831
0.43427 -0.0565769 0.5 0.839112
0.422436 -0.057115 0.5 0.834235
0.410617 -0.0576129 0.5 0.825853
0.398817 -0.0580691 0.5 0.820042
0.387036 -0.0584819 0.5 0.817141
0.375275 -0.0588496 0.5 0.810597
0.363536 -0.0591705 0.5 0.802183
0.35182 -0.0594427 0.5 0.797025
0.340129 -0.0596642 0.5 0.792698
0.328465 -0.0598331 0.5 0.785183
0.316829 -0.0599471 0.5 0.778075
0.305225 -0.0600041 0.5 0.78617
0.293654 -0.0600016 0.5 0.783313
0.282119 -0.0599373 0.5 0.740367
0.270623 -0.0598085 0.5 0.724001
0.25917 -0.0596124 0.5 0.721943
0.247764 -0.0593463 0.5 0.720141
0.23641 -0.0590071 0.5 0.720558
0.225112 -0.0585917 0.5 0.723036
0.213877 -0.0580969 0.5 0.724127
0.202712 -0.0575192 0.5 0.727058
0.191628 -0.0568553 0.5 0.733508
0.180634 -0.0561016 0.5 0.735809
0.169744 -0.0552547 0.5 0.742627
0.158975 -0.0543114 0.5 0.748672
0.148349 -0.0532692 0.5 0.75588
0.137893 -0.052126 0.5 0.765051
0.12764 -0.0508813 0.5 0.771788
0.117631 -0.0495365 0.5 0.783374
0.107919 -0.0480958 0.5 0.792601
0.0985599 -0.046567 0.5 0.804023
0.0896181 -0.0449618 0.5 0.816358
0.0811569 -0.0432962 0.5 0.829626
0.0732325 -0.0415892 0.5 0.843014
0.0658863 -0.0398614 0.5 0.85772
0.0591391 -0.0381327 0.5 0.873183
0.0529893 -0.0364202 0.5 0.889653
0.0474153 -0.0347371 0.5 0.905628
0.0423804 -0.0330918 0.5 0.923348
0.037839 -0.0314889 0.5 0.940885
0.0337425 -0.0299293 0.5 0.959698
0.0300429 -0.0284117 0.5 0.978822
0.0266953 -0.0269333 0.5 0.999052
0.0236597 -0.02549 0.5 1.0199
0.0209008 -0.0240773 0.5 1.042
0.0183884 -0.0226906 0.5 1.06504
0.0160966 -0.0213252 0.5 1.08948
0.0140039 -0.0199765 0.5 1.1152
0.0120924 -0.0186401 0.5 1.14255
0.0103474 -0.0173119 0.5 1.17142
0.00875716 -0.0159881 0.5 1.20209
0.00731248 -0.0146652 0.5 1.2345
0.00600641 -0.0133402 0.5 1.26835
0.00483403 -0.0120108 0.5 1.30342
0.00379219 -0.0106756 0.5 1.33372
0.00287911 -0.00933401 0.5 1.36965
0.00209395 -0.0079868 0.5 1.40197
0.00143637 -0.00663621 0.5 1.43072
0.000905848 -0.00528614 0.5 1.45494
0.000500793 -0.0039413 0.5 1.47254
0.000218398 -0.00260861 0.5 1.48478
5.37248e-05 -0.00129588 0.5 1.48844
9.09786e-18 0 0.5 1.48234
5.37248e-05 0.00129588 0.5 1.46991
0.000218398 0.00260861 0.5 1.45049
0.000500793 0.0039413 0.5 1.42392
0.000905848 0.00528614 0.5 1.39119
0.00143637 0.00663621 0.5 1.35333
0.00209395 0.0079868 0.5 1.31081
0.00287911 0.00933401 0.5 1.27398
0.00379219 0.0106756 0.5 1.23141
0.00483403 0.0120108 0.5 1.18988
0.00600641 0.0133402 0.5 1.1502
0.00731248 0.0146652 0.5 1.11287
0.00875716 0.0159881 0.5 1.07814
0.0103474 0.0173119 0.5 1.04565
0.0120924 0.0186401 0.5 1.01542
0.0140039 0.0199765 0.5 0.987549
0.0160966 0.0213252 0.5 0.961561
0.0183884 0.0226906 0.5 0.937727
0.0209008 0.0240773 0.5 0.914932
0.0236597 0.02549 0.5 0.893925
0.0266953 0.0269333 0.5 0.87354
0.0300429 0.0284117 0.5 0.854996
0.0337425 0.0299293 0.5 0.836589
0.037839 0.0314889 0.5 0.819667
0.0423804 0.0330918 0.5 0.803836
0.0474153 0.0347371 0.5 0.785537
0.0529893 0.0364202 0.5 0.772576
0.0591391 0.0381327 0.5 0.756849
0.0658863 0.0398614 0.5 0.742543
0.0732325 0.0415892 0.5 0.728792
0.0811569 0.0432962 0.5 0.715064
0.0896181 0.0449618 0.5 0.705561
0.0985599 0.046567 0.5 0.691679
0.107919 0.0480958 0.5 0.680229
0.117631 0.0495365 0.5 0.672425
0.12764 0.0508813 0.5 0.663958
0.137893 0.052126 0.5 0.651235
0.148349 0.0532692 0.5 0.646267
0.158975 0.0543114 0.5 0.63772
0.169744 0.0552547 0.5 0.631545
0.180634 0.0561016 0.5 0.623807
0.191628 0.0568553 0.5 0.618322
0.202712 0.0575192 0.5 0.612322
0.213877 0.0580969 0.5 0.60844
0.225112 0.0585917 0.5 0.604248
0.23641 0.0590071 0.5 0.595934
0.247764 0.0593463 0.5 0.593563
0.25917 0.0596124 0.5 0.590947
0.270623 0.0598085 0.5 0.58744
0.282119 0.0599373 0.5 0.582505
0.293654 0.0600016 0.5 0.57905
0.305225 0.0600041 0.5 0.578033
0.316829 0.0599471 0.5 0.575502
0.328465 0.0598331 0.5 0.571768
0.340129 0.0596642 0.5 0.568625
0.35182 0.0594427 0.5 0.568323
0.363536 0.0591705 0.5 0.567218
0.375275 0.0588496 0.5 0.564153
0.387036 0.0584819 0.5 0.562473
0.398817 0.0580691 0.5 0.563848
0.410617 0.0576129 0.5 0.562428
0.422436 0.057115 0.5 0.560138
0.43427 0.0565769 0.5 0.559612
0.446121 0.0560001 0.5 0.567145
0.457986 0.0553858 0.5 0.724865
0.469865 0.0547356 0.5 0.904181
0.481757 0.0540507 0.5 0.922502
0.493661 0.0533322 0.5 0.91712
0.505576 0.0525814 0.5 0.914072
0.517502 0.0517993 0.5 0.913446
0.529437 0.050987 0.5 0.912976
0.541382 0.0501455 0.5 0.911983
0.553335 0.0492757 0.5 0.910358
0.565296 0.0483784 0.5 0.910869
0.577265 0.0474547 0.5 0.912881
0.58924 0.0465051 0.5 0.917119
0.601221 0.0455305 0.5 0.920506
0.613207 0.0445315 0.5 0.923359
0.625198 0.0435089 0.5 0.92503
0.637194 0.0424632 0.5 0.926644
0.649194 0.0413949 0.5 0.930055
0.661197 0.0403047 0.5 0.934939
0.673203 0.0391929 0.5 0.940961
0.685211 0.03806 0.5 0.944965
0.697222 0.0369064 0.5 0.94681
0.709233 0.0357325 0.5 0.950081
0.721246 0.0345385 0.5 0.954961
0.733259 0.0333248 0.5 0.959363
0.745271 0.0320915 0.5 0.962961
0.757283 0.030839 0.5 0.96699
0.769293 0.0295674 0.5 0.971779
0.7813 0.0282768 0.5 0.976623
0.793304 0.0269675 0.5 0.98125
0.805302 0.0256397 0.5 0.986142
0.817291 0.0242937 0.5 0.991473
0.829266 0.0229301 0.5 0.996946
0.84122 0.0215496 0.5 1.00251
0.853139 0.0201537 0.5 1.00814
0.865003 0.0187451 0.5 1.01409
0.876775 0.0173279 0.5 1.02039
0.888401 0.0159093 0.5 1.02711
0.899795 0.0145004 0.5 1.03404
0.910835 0.0131174 0.5 1.04124
0.921364 0.0117817 0.5 1.04841
0.93121 0.0105177 0.5 1.05561
0.940222 0.00934793 0.5 1.06267
0.948306 0.008288 0.5 1.06976
0.955448 0.00734296 0.5 1.07661
0.961704 0.00650854 0.5 1.08325
0.967167 0.00577474 0.5 1.08938
0.971946 0.00512882 0.5 1.09503
0.976149 0.00455766 0.5 1.10013
0.979871 0.00404935 0.5 1.10478
0.983194 0.00359364 0.5 1.10897
0.986181 0.00318229 0.5 1.11278
0.989039 0.00278739 0.5 1.11627
0.991644 0.0024263 0.5 1.11916
0.993749 0.00213358 0.5 1.12215
0.995451 0.00189636 0.5 1.12464
0.996827 0.00170419 0.5 1.12732
0.99794 0.00154865 0.5 1.12929
0.998835 0.00139797 0.5 1.12861
0.99948 0.00110792 0.5 1.10411
0.999845 0.000663127 0.5 1.11001
0.999981 0.000213631 0.5 1.11608
