# p  FACE_DATA 249
#  x  y  z  p
0.999981 -0.000213631 0.5 1.11481
0.999845 -0.000663127 0.5 1.11252
0.99948 -0.00110792 0.5 1.11373
0.998835 -0.00139797 0.5 1.11317
0.99794 -0.00154865 0.5 1.10752
0.996827 -0.00170419 0.5 1.09934
0.995451 -0.00189636 0.5 1.09059
0.993749 -0.00213358 0.5 1.08186
0.991644 -0.0024263 0.5 1.0737
0.989039 -0.00278739 0.5 1.06703
0.986181 -0.00318229 0.5 1.06325
0.983194 -0.00359364 0.5 1.06318
0.979871 -0.00404935 0.5 1.06709
0.976149 -0.00455766 0.5 1.0738
0.971946 -0.00512882 0.5 1.07851
0.967167 -0.00577474 0.5 1.07962
0.961704 -0.00650854 0.5 1.07562
0.955448 -0.00734296 0.5 1.07058
0.948306 -0.008288 0.5 1.06467
0.940222 -0.00934793 0.5 1.05754
0.93121 -0.0105177 0.5 1.05109
0.921364 -0.0117817 0.5 1.04407
0.910835 -0.0131174 0.5 1.03665
0.899795 -0.0145004 0.5 1.02824
0.888401 -0.0159093 0.5 1.01992
0.876775 -0.0173279 0.5 1.01287
0.865003 -0.0187451 0.5 1.00667
0.853139 -0.0201537 0.5 1.00085
0.84122 -0.0215496 0.5 0.995284
0.829266 -0.0229301 0.5 0.989931
0.817291 -0.0242937 0.5 0.984756
0.805302 -0.0256397 0.5 0.979729
0.793304 -0.0269675 0.5 0.974832
0.7813 -0.0282768 0.5 0.970042
0.769293 -0.0295674 0.5 0.965346
0.757283 -0.030839 0.5 0.960726
0.745271 -0.0320915 0.5 0.956172
0.733259 -0.0333248 0.5 0.951668
0.721246 -0.0345385 0.5 0.947199
0.709233 -0.0357325 0.5 0.942748
0.697222 -0.0369064 0.5 0.938306
0.685211 -0.03806 0.5 0.933855
0.673203 -0.0391929 0.5 0.92939
0.661197 -0.0403047 0.5 0.924896
0.649194 -0.0413949 0.5 0.920371
0.637194 -0.0424632 0.5 0.915804
0.625198 -0.0435089 0.5 0.911197
0.613207 -0.0445315 0.5 0.906545
0.601221 -0.0455305 0.5 0.901851
0.58924 -0.0465051 0.5 0.89711
0.577265 -0.0474547 0.5 0.892322
0.565296 -0.0483784 0.5 0.887468
0.553335 -0.0492757 0.5 0.88253
0.541382 -0.0501455 0.5 0.877461
0.529437 -0.050987 0.5 0.872213
0.517502 -0.0517993 0.5 0.86672
0.505576 -0.0525814 0.5 0.860935
0.493661 -0.0533322 0.5 0.85483
0.481757 -0.0540507 0.5 0.848447
0.469865 -0.0547356 0.5 0.841818
0.457986 -0.0553858 0.5 0.834938
0.446121 -0.0560001 0.5 0.827609
0.43427 -0.0565769 0.5 0.819514
0.422436 -0.057115 0.5 0.810394
0.410617 -0.0576129 0.5 0.800309
0.398817 -0.0580691 0.5 0.789615
0.387036 -0.0584819 0.5 0.778919
0.375275 -0.0588496 0.5 0.769229
0.363536 -0.0591705 0.5 0.761618
0.35182 -0.0594427 0.5 0.756161
0.340129 -0.0596642 0.5 0.752835
0.328465 -0.0598331 0.5 0.75068
0.316829 -0.0599471 0.5 0.749292
0.305225 -0.0600041 0.5 0.748293
0.293654 -0.0600016 0.5 0.747568
0.282119 -0.0599373 0.5 0.747129
0.270623 -0.0598085 0.5 0.746863
0.25917 -0.0596124 0.5 0.746687
0.247764 -0.0593463 0.5 0.74657
0.23641 -0.0590071 0.5 0.746493
0.225112 -0.0585917 0.5 0.746935
0.213877 -0.0580969 0.5 0.748642
0.202712 -0.0575192 0.5 0.751478
0.191628 -0.0568553 0.5 0.755542
0.180634 -0.0561016 0.5 0.760476
0.169744 -0.0552547 0.5 0.765772
0.158975 -0.0543114 0.5 0.771506
0.148349 -0.0532692 0.5 0.778099
0.137893 -0.052126 0.5 0.785544
0.12764 -0.0508813 0.5 0.793854
0.117631 -0.0495365 0.5 0.803003
0.107919 -0.0480958 0.5 0.812917
0.0985599 -0.046567 0.5 0.82356
0.0896181 -0.0449618 0.5 0.834946
0.0811569 -0.0432962 0.5 0.847108
0.0732325 -0.0415892 0.5 0.860011
0.0658863 -0.0398614 0.5 0.873622
0.0591391 -0.0381327 0.5 0.887937
0.0529893 -0.0364202 0.5 0.902928
0.0474153 -0.0347371 0.5 0.918585
0.0423804 -0.0330918 0.5 0.934921
0.037839 -0.0314889 0.5 0.951955
0.0337425 -0.0299293 0.5 0.969694
0.0300429 -0.0284117 0.5 0.988261
0.0266953 -0.0269333 0.5 1.00776
0.0236597 -0.02549 0.5 1.02818
0.0209008 -0.0240773 0.5 1.0496
0.0183884 -0.0226906 0.5 1.0721
0.0160966 -0.0213252 0.5 1.09591
0.0140039 -0.0199765 0.5 1.12123
0.0120924 -0.0186401 0.5 1.14809
0.0103474 -0.0173119 0.5 1.17645
0.00875716 -0.0159881 0.5 1.20635
0.00731248 -0.0146652 0.5 1.2379
0.00600641 -0.0133402 0.5 1.27109
0.00483403 -0.0120108 0.5 1.30579
0.00379219 -0.0106756 0.5 1.34037
0.00287911 -0.00933401 0.5 1.37334
0.00209395 -0.0079868 0.5 1.40447
0.00143637 -0.00663621 0.5 1.43283
0.000905848 -0.00528614 0.5 1.45716
0.000500793 -0.0039413 0.5 1.47625
0.000218398 -0.00260861 0.5 1.48783
5.37248e-05 -0.00129588 0.5 1.49174
9.09786e-18 0 0.5 1.49094
5.37248e-05 0.00129588 0.5 1.48164
0.000218398 0.00260861 0.5 1.46334
0.000500793 0.0039413 0.5 1.43813
0.000905848 0.00528614 0.5 1.40753
0.00143637 0.00663621 0.5 1.3725
0.00209395 0.0079868 0.5 1.3342
0.00287911 0.00933401 0.5 1.29374
0.00379219 0.0106756 0.5 1.25206
0.00483403 0.0120108 0.5 1.2114
0.00600641 0.0133402 0.5 1.17295
0.00731248 0.0146652 0.5 1.13689
0.00875716 0.0159881 0.5 1.10305
0.0103474 0.0173119 0.5 1.07142
0.0120924 0.0186401 0.5 1.04204
0.0140039 0.0199765 0.5 1.01463
0.0160966 0.0213252 0.5 0.98913
0.0183884 0.0226906 0.5 0.965251
0.0209008 0.0240773 0.5 0.94289
0.0236597 0.02549 0.5 0.921889
0.0266953 0.0269333 0.5 0.902185
0.0300429 0.0284117 0.5 0.88362
0.0337425 0.0299293 0.5 0.866024
0.037839 0.0314889 0.5 0.849336
0.0423804 0.0330918 0.5 0.833496
0.0474153 0.0347371 0.5 0.818428
0.0529893 0.0364202 0.5 0.804067
0.0591391 0.0381327 0.5 0.79037
0.0658863 0.0398614 0.5 0.777332
0.0732325 0.0415892 0.5 0.764955
0.0811569 0.0432962 0.5 0.753202
0.0896181 0.0449618 0.5 0.742059
0.0985599 0.046567 0.5 0.731576
0.107919 0.0480958 0.5 0.7217
0.117631 0.0495365 0.5 0.712398
0.12764 0.0508813 0.5 0.703687
0.137893 0.052126 0.5 0.695595
0.148349 0.0532692 0.5 0.688184
0.158975 0.0543114 0.5 0.681401
0.169744 0.0552547 0.5 0.675131
0.180634 0.0561016 0.5 0.669353
0.191628 0.0568553 0.5 0.663898
0.202712 0.0575192 0.5 0.65879
0.213877 0.0580969 0.5 0.653955
0.225112 0.0585917 0.5 0.649754
0.23641 0.0590071 0.5 0.645624
0.247764 0.0593463 0.5 0.641461
0.25917 0.0596124 0.5 0.63797
0.270623 0.0598085 0.5 0.635493
0.282119 0.0599373 0.5 0.634132
0.293654 0.0600016 0.5 0.633647
0.305225 0.0600041 0.5 0.633671
0.316829 0.0599471 0.5 0.633738
0.328465 0.0598331 0.5 0.633866
0.340129 0.0596642 0.5 0.634082
0.35182 0.0594427 0.5 0.634424
0.363536 0.0591705 0.5 0.634944
0.375275 0.0588496 0.5 0.635594
0.387036 0.0584819 0.5 0.636644
0.398817 0.0580691 0.5 0.638299
0.410617 0.0576129 0.5 0.641455
0.422436 0.057115 0.5 0.64776
0.43427 0.0565769 0.5 0.659548
0.446121 0.0560001 0.5 0.683528
0.457986 0.0553858 0.5 0.732031
0.469865 0.0547356 0.5 0.832205
0.481757 0.0540507 0.5 0.860619
0.493661 0.0533322 0.5 0.867881
0.505576 0.0525814 0.5 0.871319
0.517502 0.0517993 0.5 0.87392
0.529437 0.050987 0.5 0.876335
0.541382 0.0501455 0.5 0.879277
0.553335 0.0492757 0.5 0.882589
0.565296 0.0483784 0.5 0.886487
0.577265 0.0474547 0.5 0.890346
0.58924 0.0465051 0.5 0.894156
0.601221 0.0455305 0.5 0.897904
0.613207 0.0445315 0.5 0.901418
0.625198 0.0435089 0.5 0.905049
0.637194 0.0424632 0.5 0.909085
0.649194 0.0413949 0.5 0.913538
0.661197 0.0403047 0.5 0.918367
0.673203 0.0391929 0.5 0.923437
0.685211 0.03806 0.5 0.928726
0.697222 0.0369064 0.5 0.934169
0.709233 0.0357325 0.5 0.939496
0.721246 0.0345385 0.5 0.94466
0.733259 0.0333248 0.5 0.950728
0.745271 0.0320915 0.5 0.959039
0.757283 0.030839 0.5 0.968657
0.769293 0.0295674 0.5 0.979508
0.7813 0.0282768 0.5 0.990911
0.793304 0.0269675 0.5 1.00256
0.805302 0.0256397 0.5 1.01021
0.817291 0.0242937 0.5 1.00551
0.829266 0.0229301 0.5 0.997398
0.84122 0.0215496 0.5 0.998395
0.853139 0.0201537 0.5 0.994413
0.865003 0.0187451 0.5 0.984224
0.876775 0.0173279 0.5 0.965146
0.888401 0.0159093 0.5 0.953657
0.899795 0.0145004 0.5 0.950145
0.910835 0.0131174 0.5 0.95233
0.921364 0.0117817 0.5 0.957779
0.93121 0.0105177 0.5 0.964416
0.940222 0.00934793 0.5 0.975242
0.948306 0.008288 0.5 0.990563
0.955448 0.00734296 0.5 1.00849
0.961704 0.00650854 0.5 1.02741
0.967167 0.00577474 0.5 1.04367
0.971946 0.00512882 0.5 1.0572
0.976149 0.00455766 0.5 1.06791
0.979871 0.00404935 0.5 1.07646
0.983194 0.00359364 0.5 1.08287
0.986181 0.00318229 0.5 1.08797
0.989039 0.00278739 0.5 1.09233
0.991644 0.0024263 0.5 1.09551
0.993749 0.00213358 0.5 1.09768
0.995451 0.00189636 0.5 1.10045
0.996827 0.00170419 0.5 1.10434
0.99794 0.00154865 0.5 1.10778
0.998835 0.00139797 0.5 1.10837
0.99948 0.00110792 0.5 1.10786
0.999845 0.000663127 0.5 1.11083
0.999981 0.000213631 0.5 1.11679
