/*--------------------------------*- C++ -*----------------------------------*\
| =========                 |                                                 |
| \\      /  F ield         | OpenFOAM: The Open Source CFD Toolbox           |
|  \\    /   O peration     | Version:  4.0                                   |
|   \\  /    A nd           | Web:      www.OpenFOAM.org                      |
|    \\/     M anipulation  |                                                 |
\*---------------------------------------------------------------------------*/
FoamFile
{
    version     2.0;
    format      ascii;
    class       volScalarField;
    location    "50";
    object      p;
}
// * * * * * * * * * * * * * * * * * * * * * * * * * * * * * * * * * * * * * //

dimensions      [1 -1 -2 0 0 0 0];

internalField   nonuniform List<scalar> 
24651
(
1.12474
1.1076
1.0838
1.13802
1.12958
1.12958
1.12977
1.12772
1.12473
1.12053
1.11633
1.11206
1.10735
1.10216
1.09638
1.09014
1.08391
1.07729
1.07055
1.06337
1.05569
1.04724
1.03908
1.0307
1.02354
1.01765
1.01174
1.00804
1.00476
1.00045
0.994641
0.989482
0.98236
0.975279
0.969353
0.964699
0.960732
0.956185
0.952826
0.94994
0.946866
0.943046
0.938558
0.933987
0.929227
0.924868
0.920651
0.916287
0.911215
0.906366
0.899582
0.892822
0.887492
0.882664
0.877524
0.87229
0.867335
0.862613
0.857863
0.853528
0.849732
0.845827
0.840922
0.834968
0.827658
0.819429
0.813009
0.807412
0.801281
0.795831
0.790442
0.78516
0.781739
0.787313
0.78429
0.74041
0.721956
0.718751
0.720602
0.723084
0.723548
0.722879
0.726075
0.733024
0.73977
0.742894
0.747718
0.755938
0.765973
0.772008
0.781312
0.794762
0.803084
0.815797
0.829978
0.842642
0.858313
0.873232
0.889816
0.906101
0.923554
0.941029
0.95947
0.979293
0.999359
1.01803
1.04121
1.06742
1.09008
1.11782
1.14357
1.17231
1.20265
1.23487
1.26868
1.30376
1.33396
1.36986
1.40213
1.43088
1.45503
1.47281
1.48485
1.48848
1.48235
1.4699
1.45046
1.42389
1.39116
1.35332
1.31083
1.27412
1.23153
1.19013
1.15066
1.11386
1.07925
1.04798
1.01565
0.990643
0.962241
0.932929
0.913559
0.894751
0.873146
0.854072
0.836052
0.820383
0.802167
0.786276
0.773887
0.754515
0.742722
0.727409
0.716487
0.703996
0.691462
0.682944
0.671624
0.660001
0.652813
0.649101
0.638096
0.628442
0.625614
0.619701
0.609181
0.605953
0.605664
0.599696
0.590497
0.587672
0.586136
0.585244
0.580175
0.575357
0.572242
0.570425
0.571536
0.569889
0.567382
0.56315
0.560878
0.560959
0.56275
0.56287
0.562003
0.569147
0.708028
0.881893
0.912166
0.91283
0.912622
0.912982
0.912751
0.911767
0.910826
0.910517
0.910815
0.912825
0.915101
0.917079
0.920165
0.924841
0.929651
0.935116
0.941001
0.946073
0.950456
0.954341
0.958482
0.963015
0.967559
0.971833
0.976481
0.980476
0.984618
0.989026
0.993314
0.996959
1.00127
1.00761
1.01596
1.02225
1.0266
1.03145
1.04103
1.052
1.05885
1.06252
1.06722
1.07403
1.08168
1.08816
1.0941
1.09985
1.10582
1.11197
1.11825
1.12187
1.12496
1.12728
1.12875
1.12884
1.12963
1.13648
1.07835
1.10693
1.11698
1.17037
1.18531
1.14004
1.14219
1.13268
1.12933
1.12673
1.12329
1.11882
1.11385
1.10843
1.10292
1.09795
1.0931
1.08822
1.08285
1.07742
1.07273
1.06779
1.06235
1.05692
1.05166
1.04608
1.04075
1.03305
1.02285
1.01233
1.00308
0.996176
0.99137
0.989723
0.988711
0.987206
0.984327
0.979298
0.971883
0.963596
0.956615
0.949272
0.943441
0.938551
0.935168
0.933722
0.931963
0.927418
0.918751
0.912008
0.908229
0.90671
0.906006
0.905061
0.90211
0.896832
0.891285
0.88625
0.881955
0.875427
0.865915
0.858205
0.850484
0.843939
0.838154
0.834127
0.832408
0.830639
0.828148
0.820925
0.81138
0.802769
0.794153
0.786957
0.78092
0.77576
0.781688
0.783707
0.746069
0.729758
0.721447
0.716816
0.718785
0.726146
0.730736
0.729511
0.728992
0.738296
0.747471
0.751414
0.755183
0.767027
0.776478
0.78282
0.795959
0.807158
0.818336
0.831601
0.846335
0.861202
0.876133
0.892996
0.909964
0.927803
0.945918
0.965413
0.983086
1.00533
1.02847
1.05025
1.07118
1.10168
1.12667
1.15314
1.18127
1.21167
1.24326
1.27615
1.30899
1.34073
1.37109
1.39967
1.42603
1.44836
1.4653
1.4813
1.48472
1.47845
1.46247
1.44378
1.41935
1.38958
1.35679
1.32062
1.28193
1.2423
1.20235
1.16387
1.12717
1.0935
1.06199
1.03336
0.998186
0.970462
0.950116
0.924865
0.901019
0.880236
0.861758
0.842756
0.824562
0.808964
0.790861
0.775756
0.758599
0.745892
0.733368
0.717884
0.707268
0.69639
0.683709
0.673603
0.665438
0.657029
0.648735
0.634262
0.631444
0.629404
0.618033
0.613478
0.612984
0.604182
0.593036
0.591668
0.595064
0.592007
0.582082
0.574833
0.574703
0.577348
0.577549
0.571244
0.565117
0.562287
0.562084
0.566536
0.567608
0.564057
0.55762
0.557053
0.566615
0.705579
0.881772
0.917007
0.919179
0.916574
0.9115
0.905438
0.904252
0.904895
0.907346
0.911605
0.916162
0.922084
0.92754
0.932181
0.93572
0.938247
0.941295
0.943613
0.94559
0.947254
0.949228
0.951169
0.954285
0.957907
0.961371
0.965182
0.969128
0.973795
0.978509
0.983769
0.989908
0.995825
1.0026
1.00821
1.01256
1.02013
1.02907
1.03692
1.04205
1.04763
1.05571
1.0649
1.07545
1.08697
1.09658
1.10425
1.11016
1.11459
1.11797
1.12061
1.12251
1.12504
1.12875
1.13178
1.13497
1.14053
1.15083
1.14454
1.17809
1.16696
1.1745
1.18488
1.15332
1.14007
1.12582
1.12354
1.12342
1.12207
1.11997
1.11668
1.11186
1.10587
1.09951
1.09327
1.08727
1.08128
1.07509
1.06775
1.06039
1.05357
1.047
1.04177
1.03781
1.03395
1.0307
1.02698
1.02169
1.01374
1.00365
0.994468
0.986531
0.979913
0.977357
0.976537
0.975414
0.973617
0.970291
0.965941
0.960089
0.952231
0.944525
0.937272
0.930382
0.924799
0.921812
0.920327
0.916514
0.910117
0.902803
0.897258
0.895772
0.894491
0.891535
0.886223
0.880641
0.877119
0.875229
0.872208
0.866783
0.859814
0.852105
0.843941
0.835714
0.82718
0.821707
0.82156
0.819051
0.814539
0.808767
0.801941
0.794331
0.78723
0.779989
0.781899
0.778329
0.740004
0.727143
0.725886
0.721819
0.717561
0.719984
0.727969
0.732832
0.732924
0.734194
0.746028
0.752319
0.758551
0.764585
0.77579
0.786576
0.795688
0.80686
0.820406
0.833606
0.846897
0.863284
0.879023
0.895419
0.912526
0.93034
0.948575
0.968542
0.988409
1.00698
1.03298
1.05781
1.08002
1.10252
1.13159
1.16141
1.18939
1.21948
1.2508
1.2828
1.31453
1.34795
1.37921
1.40792
1.43321
1.45393
1.46946
1.47908
1.48174
1.47706
1.46678
1.44995
1.42746
1.39946
1.3666
1.33033
1.29041
1.25221
1.21353
1.17555
1.13949
1.10599
1.07132
1.03388
1.00803
0.982056
0.957981
0.928679
0.906435
0.886625
0.867035
0.847428
0.828786
0.812726
0.792237
0.77857
0.762649
0.749593
0.734503
0.71879
0.710467
0.695357
0.681702
0.677555
0.665601
0.654715
0.646307
0.639793
0.635243
0.62569
0.62078
0.616674
0.608179
0.600515
0.598136
0.598629
0.595068
0.585315
0.578819
0.580314
0.582538
0.578965
0.571717
0.565375
0.564702
0.567725
0.569626
0.567222
0.561478
0.557587
0.557862
0.563176
0.573788
0.717358
0.892926
0.917303
0.914446
0.907801
0.904514
0.906347
0.911105
0.916529
0.920653
0.923071
0.923702
0.924462
0.925593
0.926588
0.927076
0.92818
0.928724
0.930023
0.932451
0.936624
0.941752
0.947473
0.952335
0.957108
0.963017
0.968919
0.975102
0.981801
0.988668
0.995109
1.00347
1.01161
1.01595
1.01745
1.0236
1.03441
1.04381
1.04635
1.04724
1.0561
1.06879
1.08068
1.08803
1.09177
1.09495
1.09748
1.09989
1.10248
1.10446
1.10597
1.10969
1.11487
1.1201
1.12328
1.12568
1.12954
1.14292
1.16074
1.19116
1.17435
1.17783
1.18817
1.16405
1.1454
1.13715
1.13444
1.13214
1.1306
1.12847
1.12529
1.12132
1.11569
1.11007
1.10403
1.09766
1.09098
1.08382
1.07546
1.06737
1.05817
1.04953
1.04075
1.03301
1.02627
1.02103
1.01794
1.01757
1.01477
1.00902
1.00291
0.994164
0.984091
0.975903
0.970188
0.966553
0.964156
0.962686
0.961278
0.959561
0.955527
0.950722
0.94538
0.937766
0.930304
0.926736
0.926329
0.923658
0.918463
0.910207
0.900944
0.893288
0.888324
0.8843
0.879686
0.874338
0.869308
0.866028
0.865298
0.863995
0.859809
0.854709
0.849489
0.843066
0.832566
0.821779
0.81614
0.812152
0.808928
0.806567
0.801769
0.795298
0.789172
0.784344
0.788567
0.781552
0.737399
0.721406
0.725137
0.724799
0.723042
0.719689
0.722624
0.73255
0.737549
0.73712
0.743858
0.752015
0.760396
0.766435
0.774015
0.787305
0.798432
0.806538
0.821564
0.836115
0.849047
0.864527
0.881442
0.898592
0.915735
0.934153
0.952711
0.971263
0.994598
1.01426
1.03349
1.06181
1.08999
1.11213
1.13725
1.1673
1.19682
1.22682
1.25777
1.28897
1.31965
1.35195
1.38099
1.40824
1.43179
1.4513
1.46597
1.47469
1.477
1.47282
1.4633
1.44739
1.42632
1.40039
1.36931
1.3359
1.29798
1.26116
1.22356
1.18635
1.15051
1.11492
1.07849
1.04729
1.02012
0.994496
0.960436
0.934887
0.915005
0.893501
0.872203
0.852735
0.832756
0.815568
0.79663
0.783041
0.76556
0.751529
0.734613
0.722788
0.711346
0.694258
0.684694
0.678146
0.663686
0.653234
0.649638
0.643921
0.635056
0.624617
0.623672
0.61598
0.604604
0.603891
0.603516
0.597999
0.588999
0.582742
0.583557
0.584756
0.582056
0.573502
0.5678
0.567456
0.570943
0.571089
0.568751
0.561117
0.557764
0.558731
0.564197
0.565397
0.572405
0.708116
0.88661
0.908729
0.908415
0.908706
0.913148
0.918469
0.918732
0.917108
0.915509
0.91437
0.913944
0.913254
0.913854
0.915514
0.918279
0.922078
0.926184
0.931135
0.937598
0.944383
0.951038
0.957668
0.963357
0.969045
0.974477
0.980003
0.986036
0.990755
0.996244
1.00175
1.00776
1.01409
1.01749
1.02251
1.03036
1.03788
1.04307
1.04808
1.05632
1.06559
1.07378
1.07989
1.08112
1.08134
1.08313
1.08658
1.09055
1.0944
1.09917
1.10505
1.11178
1.11814
1.12313
1.12615
1.12803
1.12987
1.13803
1.16176
1.19455
1.18774
1.17642
1.19352
1.1776
1.16218
1.15469
1.14437
1.13665
1.13164
1.12745
1.12351
1.11939
1.11503
1.11031
1.10515
1.09951
1.0933
1.08679
1.08057
1.0738
1.06636
1.05841
1.04949
1.03919
1.02916
1.02074
1.01401
1.00886
1.00655
1.00668
1.00261
0.997524
0.992059
0.984311
0.974854
0.967422
0.961809
0.957391
0.953245
0.950623
0.95077
0.949401
0.945542
0.941322
0.93638
0.930898
0.926046
0.923075
0.91879
0.914241
0.908946
0.901111
0.892752
0.886576
0.882097
0.877255
0.870921
0.864855
0.859795
0.855937
0.852559
0.850786
0.848513
0.843559
0.837459
0.830054
0.819563
0.811973
0.805951
0.80012
0.795907
0.792124
0.787374
0.784324
0.789718
0.787392
0.741522
0.721536
0.719655
0.724976
0.726272
0.725381
0.722698
0.728732
0.738344
0.742718
0.744407
0.750564
0.761157
0.770676
0.774564
0.786773
0.800789
0.808461
0.821911
0.837415
0.852512
0.866787
0.883326
0.901454
0.919114
0.937981
0.957082
0.975532
0.996915
1.02238
1.04168
1.06197
1.09036
1.12498
1.14773
1.17305
1.20307
1.23352
1.26373
1.29435
1.32481
1.35607
1.38357
1.409
1.43062
1.44828
1.46114
1.46846
1.47055
1.46694
1.4587
1.44464
1.42531
1.40172
1.37299
1.34144
1.3052
1.269
1.23244
1.19635
1.15947
1.12326
1.09242
1.06608
1.03089
0.993123
0.968784
0.945646
0.924298
0.89714
0.87806
0.857806
0.836997
0.819734
0.80151
0.78651
0.767535
0.752219
0.736444
0.725111
0.710962
0.695896
0.689826
0.677991
0.663738
0.654939
0.653645
0.644751
0.630965
0.627264
0.624002
0.611539
0.606445
0.608956
0.603963
0.593794
0.58742
0.587255
0.588063
0.584587
0.577188
0.571453
0.570848
0.573992
0.572302
0.570293
0.563174
0.559852
0.561501
0.56533
0.56488
0.56326
0.566013
0.69896
0.880164
0.911275
0.91674
0.919084
0.918444
0.915089
0.909726
0.906117
0.905009
0.905986
0.908413
0.911197
0.91496
0.919479
0.925301
0.931501
0.93782
0.943655
0.949186
0.95335
0.957719
0.96132
0.965759
0.970459
0.974478
0.978926
0.983588
0.987898
0.99241
0.996207
0.999532
1.00154
1.00668
1.01735
1.02511
1.02819
1.03038
1.04023
1.05397
1.06259
1.06612
1.06595
1.06978
1.07602
1.08237
1.08911
1.09607
1.10334
1.11136
1.11931
1.12531
1.12994
1.13375
1.13757
1.14304
1.15017
1.15354
1.16532
1.18458
1.17827
1.18393
1.19624
1.18348
1.17149
1.15541
1.14166
1.13401
1.12761
1.12161
1.11644
1.11196
1.10786
1.10336
1.09872
1.09366
1.08832
1.08319
1.07801
1.07228
1.06602
1.05897
1.05201
1.04512
1.03747
1.02846
1.01857
1.00931
1.00296
0.998586
0.996599
0.995201
0.991841
0.986816
0.981714
0.9751
0.967381
0.960524
0.95401
0.948548
0.944224
0.941403
0.940289
0.939336
0.935902
0.930233
0.921913
0.915577
0.913374
0.912409
0.909072
0.904643
0.899428
0.893646
0.88847
0.883588
0.878571
0.871311
0.862626
0.85594
0.850392
0.845213
0.841523
0.839765
0.837274
0.831948
0.82563
0.817609
0.808869
0.800913
0.794063
0.788425
0.783232
0.779943
0.788141
0.78827
0.746001
0.727323
0.7195
0.720976
0.726305
0.729015
0.72857
0.728485
0.735786
0.743925
0.749204
0.751799
0.759849
0.772146
0.779255
0.786582
0.801922
0.812972
0.824324
0.83831
0.855019
0.870446
0.886381
0.904086
0.922572
0.941984
0.961616
0.981654
1.00038
1.02438
1.05217
1.07154
1.09379
1.11931
1.15513
1.18129
1.20911
1.23901
1.26885
1.29848
1.32796
1.35717
1.38292
1.4069
1.42703
1.44335
1.45499
1.46164
1.46358
1.46024
1.45256
1.43968
1.42169
1.39969
1.37289
1.34346
1.30984
1.27521
1.24004
1.20421
1.16811
1.13529
1.10515
1.06455
1.03088
1.00514
0.981052
0.956852
0.926861
0.904448
0.884495
0.862703
0.842732
0.825462
0.805121
0.788539
0.770661
0.755037
0.742168
0.726152
0.712338
0.702612
0.691662
0.677692
0.667369
0.661104
0.654669
0.64164
0.630772
0.631657
0.623222
0.612079
0.612809
0.609925
0.600193
0.591476
0.591169
0.592296
0.588464
0.579627
0.574918
0.574542
0.576514
0.574667
0.57104
0.565539
0.561738
0.563811
0.566527
0.566108
0.56298
0.558865
0.564423
0.702397
0.889776
0.91985
0.91997
0.917481
0.911433
0.905755
0.903856
0.904508
0.906943
0.910658
0.915215
0.920108
0.924645
0.929197
0.933275
0.937383
0.941307
0.945685
0.94926
0.953024
0.955686
0.958063
0.961455
0.964984
0.968082
0.971648
0.973713
0.977165
0.981179
0.985337
0.989355
0.994425
1.0017
1.00939
1.01457
1.01935
1.02608
1.03661
1.04619
1.05155
1.05478
1.0613
1.06983
1.08047
1.0911
1.10007
1.10781
1.1141
1.11931
1.12385
1.12756
1.13077
1.13424
1.13842
1.14644
1.16102
1.17641
1.17822
1.18058
1.16206
1.19061
1.19435
1.18261
1.16843
1.14944
1.13778
1.131
1.12505
1.11933
1.11375
1.10851
1.10369
1.09868
1.09338
1.08795
1.08213
1.07645
1.07055
1.06502
1.05956
1.05398
1.04892
1.04382
1.03781
1.03144
1.02468
1.01693
1.00716
0.998796
0.993247
0.988694
0.985997
0.984326
0.981373
0.977049
0.972206
0.966985
0.961332
0.954006
0.946468
0.940613
0.936316
0.932621
0.929918
0.925989
0.920323
0.914137
0.90948
0.905509
0.903731
0.902741
0.899373
0.894057
0.888881
0.884004
0.879651
0.875074
0.869336
0.862692
0.855123
0.84757
0.840872
0.835813
0.831828
0.829471
0.826138
0.820162
0.813871
0.806948
0.798633
0.790992
0.784525
0.779078
0.784156
0.785193
0.746313
0.7303
0.72494
0.720372
0.722279
0.728929
0.732184
0.732752
0.733727
0.74293
0.750933
0.755962
0.760592
0.77168
0.782075
0.789843
0.801271
0.815018
0.827559
0.84088
0.85625
0.873251
0.889899
0.907373
0.925727
0.945681
0.965547
0.987941
1.00818
1.02741
1.05233
1.08443
1.10571
1.12717
1.15479
1.18798
1.21584
1.24419
1.27355
1.30238
1.33067
1.35785
1.38195
1.40421
1.42253
1.43734
1.44782
1.45384
1.45566
1.45253
1.44537
1.43365
1.41721
1.39711
1.37227
1.34497
1.31381
1.28085
1.2467
1.21186
1.17842
1.14572
1.1054
1.07263
1.04452
1.02074
0.991193
0.957828
0.935623
0.913188
0.890403
0.86851
0.848682
0.830328
0.807859
0.792168
0.774901
0.759981
0.745306
0.726803
0.717215
0.705356
0.690432
0.680437
0.671889
0.662916
0.653644
0.640709
0.636227
0.632868
0.622718
0.617803
0.614368
0.607629
0.598208
0.595428
0.596616
0.592753
0.584466
0.578671
0.578623
0.579672
0.577315
0.57209
0.567408
0.565376
0.566653
0.567797
0.566804
0.563541
0.559455
0.559721
0.56794
0.706698
0.899958
0.919738
0.914967
0.909915
0.906519
0.905877
0.908755
0.912578
0.915646
0.918224
0.920644
0.923284
0.92626
0.929122
0.932218
0.934827
0.937271
0.939276
0.940906
0.943127
0.945777
0.949666
0.953736
0.957874
0.962404
0.966851
0.971632
0.976561
0.981441
0.987124
0.992936
1.00003
1.00717
1.01146
1.0158
1.02365
1.03364
1.04055
1.04485
1.04996
1.05768
1.06957
1.08175
1.09049
1.09704
1.10264
1.10736
1.1119
1.1155
1.1179
1.11968
1.12274
1.1276
1.13424
1.14193
1.15404
1.17552
1.19207
1.19291
1.17111
1.18785
1.18674
1.17508
1.16114
1.1433
1.1368
1.1323
1.12799
1.12372
1.11898
1.11357
1.10759
1.10181
1.09622
1.09053
1.08426
1.07769
1.07081
1.06413
1.05724
1.05083
1.04402
1.03802
1.03301
1.02844
1.02364
1.01818
1.01248
1.00548
0.997233
0.989601
0.983781
0.979553
0.976261
0.973868
0.970815
0.966766
0.962114
0.957609
0.952645
0.946768
0.939758
0.933404
0.928683
0.925619
0.923258
0.919294
0.912979
0.906153
0.901302
0.897471
0.894596
0.890828
0.885697
0.880362
0.876506
0.873538
0.869512
0.864218
0.858631
0.853119
0.84666
0.838697
0.831129
0.825678
0.822429
0.818756
0.813858
0.808202
0.801876
0.795378
0.788864
0.78314
0.785728
0.783219
0.742865
0.729326
0.727388
0.724746
0.722096
0.725278
0.73163
0.736118
0.736679
0.740967
0.750421
0.757647
0.764433
0.771208
0.782155
0.793723
0.802932
0.815167
0.82958
0.843967
0.858703
0.875067
0.892828
0.911217
0.929604
0.949422
0.969921
0.990351
1.01571
1.03704
1.0572
1.08098
1.11389
1.14176
1.16304
1.1909
1.22085
1.24902
1.27709
1.30478
1.33177
1.35703
1.37977
1.40035
1.41714
1.4306
1.44002
1.44544
1.44713
1.4442
1.43756
1.42684
1.41177
1.39322
1.37026
1.34464
1.31579
1.28458
1.25208
1.21929
1.18588
1.14965
1.11633
1.08991
1.06115
1.02436
0.993379
0.968113
0.946835
0.920507
0.896196
0.87513
0.854035
0.833867
0.812666
0.79758
0.7784
0.763059
0.746641
0.730033
0.72073
0.704909
0.691119
0.684353
0.673201
0.661871
0.653123
0.645067
0.639656
0.631355
0.624994
0.619973
0.612607
0.60615
0.602044
0.600423
0.596737
0.589408
0.583776
0.583108
0.583054
0.579969
0.574213
0.569885
0.56864
0.570009
0.569457
0.567415
0.563424
0.561187
0.561103
0.563838
0.569777
0.706151
0.900061
0.914083
0.911519
0.909785
0.910458
0.91305
0.91433
0.915095
0.91622
0.917646
0.918829
0.920141
0.921506
0.923355
0.925228
0.927685
0.930662
0.933928
0.937562
0.941411
0.946122
0.95122
0.956016
0.960877
0.966263
0.971357
0.977996
0.984039
0.989824
0.996119
1.00244
1.00881
1.01379
1.01821
1.02446
1.03294
1.04012
1.04541
1.04996
1.05779
1.06853
1.07688
1.08335
1.08918
1.09346
1.09701
1.10006
1.10305
1.10588
1.10887
1.11331
1.11803
1.12394
1.13067
1.13744
1.1445
1.16174
1.17989
1.19686
1.19505
1.17104
1.17373
1.16596
1.15495
1.14718
1.14422
1.13851
1.13275
1.12779
1.12329
1.11861
1.11337
1.10783
1.10217
1.09637
1.09029
1.08396
1.07716
1.06989
1.06172
1.05362
1.04549
1.03766
1.03091
1.0247
1.01926
1.01499
1.01099
1.00615
1.00065
0.994912
0.98786
0.980818
0.975102
0.970648
0.966613
0.962867
0.959177
0.955874
0.952434
0.948264
0.943869
0.938736
0.933023
0.928667
0.925105
0.921464
0.917079
0.911611
0.904886
0.898431
0.893498
0.889168
0.884474
0.87918
0.874129
0.869703
0.865708
0.861761
0.857322
0.853041
0.848157
0.842701
0.835629
0.827449
0.821496
0.816186
0.811023
0.805885
0.800819
0.795234
0.789478
0.785114
0.790001
0.786208
0.743055
0.726757
0.726266
0.727147
0.726524
0.725805
0.729017
0.735945
0.74094
0.743097
0.749884
0.757224
0.766514
0.77372
0.781376
0.794874
0.806286
0.816956
0.831175
0.846154
0.862279
0.878277
0.895866
0.914936
0.933907
0.953769
0.974818
0.995745
1.01717
1.04419
1.06812
1.08852
1.11291
1.14412
1.17392
1.19738
1.22506
1.25308
1.28033
1.30663
1.33201
1.35551
1.37668
1.39549
1.41083
1.42302
1.43151
1.43638
1.43796
1.43518
1.429
1.41917
1.40538
1.38834
1.3674
1.34353
1.31688
1.28762
1.25706
1.22515
1.19167
1.1591
1.13211
1.09782
1.06135
1.03087
1.00598
0.981519
0.953421
0.925848
0.904224
0.8819
0.858873
0.839434
0.818817
0.801945
0.781765
0.765659
0.749369
0.73451
0.721996
0.704984
0.695148
0.686236
0.672835
0.661874
0.655994
0.649208
0.639035
0.631543
0.627448
0.619374
0.611282
0.609067
0.605884
0.600159
0.593693
0.589325
0.587668
0.586101
0.582532
0.577222
0.573505
0.572392
0.572593
0.571283
0.568364
0.564715
0.562947
0.563436
0.564867
0.564513
0.568514
0.699879
0.894973
0.913501
0.914908
0.915328
0.914821
0.914095
0.913159
0.911961
0.911889
0.912546
0.914042
0.916111
0.918746
0.921527
0.924864
0.928709
0.933054
0.937838
0.943316
0.948472
0.953547
0.958104
0.962511
0.967187
0.972051
0.976855
0.981582
0.986455
0.991506
0.99643
1.00203
1.00711
1.01181
1.01812
1.02505
1.03201
1.03725
1.04399
1.05249
1.06123
1.06833
1.07366
1.07772
1.08205
1.08683
1.09172
1.096
1.10038
1.10518
1.11086
1.11719
1.12353
1.12935
1.13482
1.1397
1.14218
1.14899
1.16317
1.17608
1.18455
1.15518
1.16384
1.16614
1.16178
1.15846
1.14728
1.13746
1.13075
1.12508
1.12028
1.11559
1.11058
1.10547
1.10015
1.09461
1.08881
1.08293
1.07681
1.07032
1.06359
1.05654
1.04938
1.042
1.03402
1.0263
1.0192
1.01325
1.0078
1.00332
0.999094
0.994739
0.989786
0.984412
0.9786
0.972634
0.967195
0.962356
0.957798
0.953374
0.949421
0.945891
0.942448
0.938766
0.934195
0.929275
0.924034
0.919395
0.915689
0.911804
0.907257
0.902279
0.89682
0.891249
0.886561
0.88164
0.876366
0.870758
0.86528
0.860308
0.855197
0.850452
0.846135
0.841898
0.836792
0.830755
0.82418
0.817466
0.811225
0.805182
0.799185
0.79348
0.787854
0.783961
0.790179
0.7889
0.746235
0.728355
0.725177
0.726204
0.728372
0.729871
0.730439
0.73461
0.741366
0.746871
0.751938
0.757706
0.766911
0.776718
0.783915
0.794941
0.808292
0.820426
0.833784
0.848553
0.865399
0.881989
0.899463
0.918641
0.9383
0.958622
0.979484
1.00258
1.02375
1.04626
1.07385
1.10137
1.12268
1.14636
1.17503
1.20355
1.22966
1.25597
1.28224
1.30731
1.33109
1.35302
1.37266
1.38982
1.40382
1.41483
1.42246
1.42682
1.42828
1.42564
1.41992
1.41088
1.39829
1.38261
1.36343
1.34127
1.31647
1.28927
1.26028
1.22952
1.19875
1.16859
1.13474
1.10078
1.07237
1.04634
1.0188
0.986335
0.959413
0.934987
0.912707
0.8875
0.8651
0.845756
0.823949
0.805623
0.785888
0.769422
0.754019
0.737069
0.723489
0.709332
0.698639
0.687117
0.674329
0.665023
0.659155
0.649437
0.638239
0.634343
0.628387
0.618942
0.613837
0.611984
0.605695
0.598115
0.59425
0.592816
0.589744
0.584993
0.580547
0.577602
0.576286
0.575027
0.572942
0.569925
0.566994
0.565358
0.565751
0.565804
0.564867
0.562787
0.566374
0.699152
0.89791
0.918906
0.917722
0.916012
0.913507
0.911094
0.909494
0.909661
0.910621
0.912571
0.915039
0.91814
0.921681
0.925471
0.929642
0.933657
0.937786
0.941911
0.945923
0.949854
0.95394
0.957732
0.96185
0.966165
0.970355
0.974861
0.978913
0.983251
0.987973
0.992581
0.997325
1.00213
1.00805
1.01517
1.02155
1.02703
1.03285
1.04145
1.05035
1.05769
1.0631
1.06844
1.07444
1.08083
1.0876
1.09418
1.10065
1.10718
1.11344
1.11904
1.12387
1.12865
1.13385
1.14
1.14874
1.15685
1.15513
1.15511
1.15678
1.15802
1.16358
1.17498
1.17327
1.16669
1.15359
1.14258
1.13458
1.12781
1.12193
1.11706
1.11245
1.10762
1.10257
1.09736
1.09191
1.08613
1.08035
1.07435
1.06825
1.06178
1.05509
1.04833
1.0419
1.03538
1.02885
1.02212
1.0151
1.00843
1.00266
0.997546
0.992591
0.988116
0.983701
0.979258
0.974669
0.969814
0.964805
0.95962
0.954343
0.949366
0.944873
0.940615
0.936605
0.932721
0.928321
0.92345
0.918465
0.913931
0.909657
0.905795
0.902088
0.897637
0.892664
0.887689
0.882746
0.878132
0.87332
0.867751
0.861979
0.856236
0.850741
0.845603
0.840419
0.835343
0.830475
0.825363
0.819608
0.813494
0.807018
0.800433
0.794234
0.788297
0.783629
0.788879
0.788274
0.74763
0.731105
0.727074
0.725886
0.727583
0.731302
0.733806
0.736229
0.74069
0.747633
0.754356
0.760197
0.767798
0.777718
0.787727
0.797329
0.809355
0.823006
0.83659
0.851525
0.868107
0.885595
0.903409
0.922648
0.942651
0.963767
0.984795
1.00736
1.032
1.05412
1.07674
1.10361
1.13233
1.15632
1.17973
1.20677
1.23339
1.25872
1.28357
1.30704
1.32937
1.34964
1.36776
1.38339
1.39614
1.40607
1.41295
1.41682
1.41816
1.41563
1.41034
1.40203
1.39053
1.37611
1.35857
1.33819
1.31521
1.28985
1.26266
1.23393
1.20458
1.17322
1.14124
1.11385
1.08643
1.05459
1.02298
0.994161
0.970215
0.944115
0.918358
0.894055
0.87222
0.851462
0.828299
0.810656
0.790453
0.77379
0.757485
0.739299
0.727284
0.713783
0.699632
0.688999
0.677936
0.667924
0.659892
0.649436
0.640501
0.636362
0.62889
0.621064
0.61658
0.612054
0.60502
0.599439
0.597373
0.594252
0.589011
0.584284
0.581805
0.580344
0.577939
0.574682
0.571917
0.569857
0.568334
0.567778
0.566821
0.565385
0.563762
0.562772
0.566979
0.700136
0.904248
0.920585
0.916427
0.913719
0.911403
0.910247
0.910376
0.911726
0.913555
0.915716
0.918072
0.920677
0.92348
0.926545
0.929725
0.933189
0.936667
0.940178
0.943697
0.947329
0.950942
0.954924
0.959257
0.963591
0.96795
0.972498
0.977185
0.981949
0.986791
0.991961
0.997153
1.00279
1.00892
1.0149
1.0207
1.02704
1.03421
1.04187
1.04903
1.0556
1.062
1.06957
1.07777
1.08573
1.09252
1.09832
1.10324
1.10808
1.11252
1.11683
1.12098
1.12546
1.13079
1.13727
1.14509
1.15577
1.16731
1.17012
1.16097
1.14607
1.17517
1.17366
1.16431
1.15782
1.14581
1.13872
1.13418
1.12836
1.1231
1.11828
1.11334
1.1081
1.10288
1.09759
1.0921
1.08622
1.08026
1.07402
1.06757
1.06077
1.05394
1.04713
1.04062
1.03433
1.02818
1.02201
1.016
1.01016
1.0043
0.998427
0.99277
0.987491
0.982747
0.978293
0.97397
0.969542
0.964964
0.960371
0.955775
0.951099
0.94631
0.941471
0.936777
0.932374
0.928191
0.924165
0.919732
0.914813
0.909803
0.905186
0.900907
0.896757
0.892075
0.887129
0.882096
0.877477
0.87315
0.868301
0.863106
0.857805
0.852545
0.847106
0.841312
0.835358
0.829766
0.824802
0.819541
0.81402
0.808105
0.802039
0.795936
0.789963
0.785183
0.789747
0.788098
0.747112
0.731518
0.729026
0.727853
0.728147
0.730812
0.734741
0.73884
0.742316
0.747728
0.755209
0.762302
0.770129
0.778543
0.789332
0.800515
0.81181
0.825138
0.839343
0.854746
0.871347
0.888844
0.907274
0.926936
0.947091
0.968684
0.990723
1.01267
1.03626
1.0616
1.08529
1.10838
1.13413
1.16112
1.18627
1.21065
1.23574
1.26027
1.28388
1.30591
1.32678
1.34548
1.36214
1.37634
1.38792
1.39687
1.40306
1.4065
1.40769
1.40526
1.40038
1.39273
1.38223
1.36901
1.35296
1.3342
1.31298
1.28931
1.26404
1.23687
1.20831
1.17903
1.15074
1.12187
1.0908
1.0605
1.03301
1.00601
0.979429
0.950415
0.925665
0.902156
0.879043
0.856748
0.834148
0.816241
0.795174
0.77792
0.760721
0.743057
0.731279
0.715633
0.701366
0.692298
0.680371
0.669022
0.660827
0.651886
0.643489
0.637083
0.630348
0.623479
0.61697
0.612266
0.606742
0.60213
0.59835
0.594153
0.589349
0.586094
0.583964
0.581193
0.577703
0.57452
0.572704
0.57149
0.569957
0.568223
0.566468
0.565125
0.564568
0.564082
0.567786
0.700203
0.905744
0.919122
0.9155
0.913779
0.91241
0.912241
0.912507
0.913108
0.914181
0.915695
0.917689
0.919924
0.922509
0.925373
0.928435
0.931773
0.935282
0.938904
0.942708
0.946661
0.950812
0.955105
0.959522
0.963978
0.968674
0.973382
0.978312
0.98339
0.988436
0.993897
0.999449
1.00517
1.01088
1.01642
1.02245
1.02951
1.0365
1.04331
1.04978
1.05701
1.06482
1.07243
1.0792
1.08554
1.09123
1.09641
1.10098
1.10532
1.10945
1.11352
1.11751
1.12203
1.12731
1.13366
1.13958
1.14664
1.15851
1.1663
1.17394
1.15775
1.15899
1.15812
1.1525
1.14846
1.14326
1.14154
1.13561
1.12903
1.12383
1.11924
1.11447
1.10925
1.10399
1.09867
1.09318
1.08735
1.08142
1.07519
1.06865
1.06168
1.05463
1.04746
1.04054
1.03384
1.02742
1.02124
1.01544
1.00993
1.00457
0.999204
0.993836
0.98842
0.983154
0.978159
0.973484
0.968933
0.964448
0.959955
0.955531
0.95115
0.94681
0.942418
0.937917
0.933343
0.928928
0.924684
0.920337
0.91579
0.911088
0.906183
0.901394
0.896775
0.892015
0.887135
0.88213
0.87739
0.872789
0.867887
0.862833
0.857737
0.852805
0.847814
0.842468
0.836661
0.830604
0.825083
0.819525
0.813915
0.808077
0.802256
0.796427
0.790645
0.786218
0.791214
0.78946
0.748109
0.731698
0.729559
0.729387
0.730142
0.731917
0.735042
0.739783
0.744711
0.749545
0.756231
0.763616
0.772216
0.78092
0.790738
0.802432
0.814684
0.827866
0.842143
0.857957
0.875048
0.892634
0.911326
0.931415
0.951753
0.973316
0.995963
1.01904
1.04182
1.06596
1.09153
1.11624
1.13993
1.16433
1.1896
1.21426
1.23804
1.26118
1.28332
1.30405
1.32336
1.34059
1.35584
1.36873
1.37924
1.38728
1.39284
1.3959
1.39692
1.39459
1.39008
1.38306
1.37347
1.36135
1.34666
1.32945
1.3099
1.28796
1.26434
1.23879
1.21199
1.18477
1.15612
1.12675
1.09823
1.07067
1.04333
1.01417
0.986443
0.959045
0.934891
0.909718
0.885331
0.863373
0.840696
0.821653
0.800163
0.782349
0.764935
0.747111
0.734119
0.718246
0.704826
0.694886
0.682254
0.670657
0.663148
0.654784
0.644662
0.638199
0.63251
0.624486
0.617688
0.613994
0.608926
0.602921
0.598537
0.594923
0.591149
0.587605
0.584447
0.581353
0.578219
0.575813
0.574174
0.572365
0.57022
0.568201
0.566891
0.56621
0.565813
0.564531
0.56772
0.698385
0.905599
0.919961
0.916638
0.915179
0.913586
0.912676
0.912222
0.912385
0.913373
0.914977
0.917025
0.919435
0.922214
0.925265
0.928618
0.932216
0.935972
0.939905
0.94399
0.948104
0.952295
0.956472
0.960787
0.965284
0.969924
0.974545
0.979247
0.98402
0.988962
0.994158
0.9995
1.00489
1.01045
1.01644
1.02285
1.02948
1.03589
1.04293
1.05042
1.05807
1.06508
1.07163
1.07768
1.08355
1.08905
1.09433
1.09922
1.10397
1.10873
1.11347
1.11831
1.12334
1.12855
1.13406
1.13935
1.14183
1.14746
1.15452
1.16184
1.16468
1.14329
1.14608
1.14892
1.14808
1.14692
1.14164
1.1339
1.12743
1.12214
1.11767
1.1131
1.10805
1.10298
1.09781
1.09244
1.08673
1.08094
1.0749
1.0686
1.06188
1.05498
1.04804
1.04126
1.03454
1.02795
1.02151
1.01541
1.00963
1.00419
0.998911
0.993781
0.988721
0.983784
0.978883
0.974053
0.969296
0.964631
0.95999
0.955397
0.950903
0.946548
0.942258
0.937957
0.9336
0.929165
0.924646
0.920155
0.91568
0.911164
0.90664
0.902165
0.897584
0.892736
0.887863
0.882946
0.878182
0.873378
0.86824
0.863022
0.857827
0.852816
0.847872
0.842616
0.837146
0.831529
0.826075
0.82038
0.814562
0.808554
0.802647
0.79679
0.791014
0.786598
0.791701
0.790463
0.749684
0.733103
0.730406
0.73002
0.731499
0.73392
0.736596
0.740649
0.745965
0.751675
0.758194
0.765373
0.773874
0.783396
0.793417
0.804427
0.817253
0.830991
0.845279
0.861412
0.878738
0.896801
0.915776
0.936212
0.956923
0.978483
1.00097
1.02445
1.04823
1.07169
1.09597
1.12078
1.14538
1.16919
1.19273
1.21637
1.23939
1.26121
1.28201
1.30136
1.31921
1.33503
1.34896
1.36065
1.37014
1.37736
1.38234
1.38507
1.38591
1.38367
1.37951
1.37306
1.3643
1.35322
1.33978
1.324
1.306
1.28576
1.26369
1.23994
1.21467
1.1884
1.16086
1.13372
1.10619
1.07815
1.05004
1.02148
0.99522
0.968367
0.942984
0.916743
0.892666
0.870521
0.846925
0.827209
0.805473
0.787218
0.7694
0.75067
0.737377
0.722352
0.708
0.697287
0.684667
0.673329
0.665596
0.656492
0.646148
0.640206
0.634071
0.625775
0.61964
0.615796
0.609909
0.603652
0.599682
0.596713
0.592403
0.588181
0.584976
0.582328
0.579645
0.576926
0.574755
0.572782
0.570719
0.569066
0.568013