/*--------------------------------*- C++ -*----------------------------------*\
| =========                 |                                                 |
| \\      /  F ield         | OpenFOAM: The Open Source CFD Toolbox           |
|  \\    /   O peration     | Version:  4.0                                   |
|   \\  /    A nd           | Web:      www.OpenFOAM.org                      |
|    \\/     M anipulation  |                                                 |
\*---------------------------------------------------------------------------*/
FoamFile
{
    version     2.0;
    format      ascii;
    class       volScalarField;
    location    "50";
    object      rho;
}
// * * * * * * * * * * * * * * * * * * * * * * * * * * * * * * * * * * * * * //

dimensions      [1 -3 0 0 0 0 0];

internalField   nonuniform List<scalar> 
24651
(
1.48657
1.48555
1.46171
1.52403
1.5178
1.51827
1.51859
1.51666
1.51382
1.50979
1.50572
1.5016
1.49704
1.49199
1.48638
1.48031
1.47425
1.46779
1.46116
1.45419
1.44666
1.43836
1.43034
1.4221
1.41507
1.40933
1.40349
1.39984
1.39662
1.39233
1.38651
1.3813
1.37417
1.3671
1.36119
1.35657
1.35255
1.34803
1.34466
1.34183
1.33877
1.33492
1.33037
1.32575
1.32103
1.31667
1.31226
1.3078
1.30258
1.29754
1.29061
1.28371
1.27825
1.27331
1.26797
1.26258
1.25748
1.25261
1.24775
1.24323
1.23931
1.23526
1.23014
1.22375
1.216
1.20743
1.2007
1.19488
1.18835
1.18257
1.1769
1.17127
1.16765
1.17347
1.17002
1.12294
1.103
1.09953
1.10176
1.1045
1.10493
1.10436
1.10797
1.11572
1.12303
1.12668
1.13202
1.1408
1.15152
1.15822
1.16801
1.18212
1.19125
1.20465
1.21943
1.23285
1.24949
1.26487
1.28228
1.29928
1.31731
1.33536
1.35444
1.37477
1.39518
1.41404
1.43717
1.46314
1.48548
1.51259
1.53793
1.5658
1.59495
1.62566
1.65757
1.69032
1.71825
1.75146
1.78129
1.80758
1.82949
1.84551
1.85622
1.85945
1.85394
1.84284
1.82531
1.80113
1.77107
1.73599
1.69654
1.66239
1.62232
1.58282
1.5447
1.50878
1.47463
1.44318
1.41074
1.38541
1.35637
1.32615
1.30621
1.28662
1.2637
1.24352
1.22434
1.20782
1.18829
1.17136
1.15823
1.13691
1.12436
1.10784
1.09562
1.08249
1.06892
1.05923
1.04686
1.0341
1.02571
1.02124
1.00898
0.997968
0.99472
0.987817
0.975795
0.971815
0.971398
0.964628
0.953788
0.95053
0.948512
0.947505
0.941747
0.93584
0.932064
0.929854
0.93104
0.929268
0.926327
0.920949
0.918294
0.9182
0.920301
0.920461
0.919495
0.926743
1.07644
1.25624
1.29056
1.2926
1.29335
1.29443
1.2947
1.29401
1.29324
1.29304
1.29348
1.2956
1.29808
1.30009
1.30326
1.30804
1.31289
1.3185
1.32442
1.3296
1.33414
1.33805
1.34239
1.34697
1.35156
1.35588
1.36057
1.36458
1.36874
1.37319
1.37746
1.38109
1.3854
1.39172
1.40001
1.4062
1.41042
1.4152
1.42473
1.43548
1.44208
1.4456
1.45011
1.4567
1.46413
1.47038
1.47613
1.48166
1.48742
1.49336
1.49941
1.50297
1.50594
1.50812
1.50947
1.50937
1.50982
1.51413
1.4543
1.47119
1.49259
1.5371
1.5497
1.51862
1.52931
1.52151
1.51817
1.51576
1.51249
1.50821
1.50341
1.49816
1.49286
1.48805
1.48333
1.47857
1.47334
1.46804
1.46344
1.45869
1.45335
1.44808
1.44294
1.4374
1.43217
1.4246
1.41453
1.40418
1.39508
1.38817
1.3834
1.38174
1.38077
1.37927
1.37633
1.3713
1.36387
1.3556
1.34858
1.34125
1.33541
1.33046
1.32706
1.32562
1.32395
1.31943
1.31057
1.30358
1.29971
1.29813
1.29749
1.29651
1.29343
1.28803
1.28237
1.27717
1.27274
1.266
1.25621
1.24832
1.24033
1.23348
1.22737
1.22319
1.22143
1.21953
1.21683
1.20925
1.19918
1.19016
1.1811
1.1735
1.16704
1.16143
1.16769
1.16981
1.12941
1.11176
1.10286
1.09789
1.10005
1.10829
1.1132
1.11206
1.11157
1.12187
1.13189
1.13629
1.14042
1.15319
1.16325
1.17008
1.18398
1.19596
1.20785
1.22178
1.2374
1.25311
1.26868
1.28634
1.30408
1.32255
1.34124
1.36134
1.37946
1.40195
1.42522
1.44699
1.46764
1.49755
1.52196
1.54785
1.57501
1.6041
1.63409
1.665
1.69556
1.7248
1.75271
1.7791
1.80321
1.82347
1.83878
1.85314
1.8562
1.85056
1.8362
1.81927
1.79703
1.76967
1.73936
1.70602
1.67018
1.63306
1.59516
1.55821
1.52261
1.48959
1.45815
1.42948
1.39417
1.36598
1.3451
1.31903
1.29428
1.27245
1.25291
1.2327
1.21337
1.19665
1.1773
1.16115
1.14241
1.12865
1.11491
1.09792
1.08666
1.07473
1.06073
1.0496
1.04042
1.03086
1.02139
1.00497
1.00179
0.999451
0.986415
0.981032
0.980189
0.97018
0.957193
0.955624
0.959322
0.955739
0.944311
0.935743
0.935537
0.938272
0.938501
0.931261
0.923991
0.920578
0.920218
0.925184
0.92633
0.922348
0.914612
0.913977
0.924523
1.07522
1.25726
1.2957
1.29911
1.29768
1.29322
1.28741
1.28646
1.28746
1.29008
1.29446
1.2992
1.30524
1.3108
1.31554
1.31918
1.32176
1.325
1.32741
1.32945
1.3312
1.33324
1.3352
1.33837
1.34204
1.34556
1.34941
1.35336
1.35806
1.36279
1.36805
1.37424
1.38016
1.38693
1.39244
1.39672
1.40419
1.413
1.42084
1.42585
1.43124
1.43904
1.44798
1.45819
1.46931
1.47863
1.48605
1.49173
1.49602
1.49932
1.50188
1.50375
1.50618
1.50969
1.51251
1.51547
1.52075
1.52978
1.51484
1.54492
1.52511
1.53763
1.55353
1.5344
1.52836
1.51526
1.51292
1.51288
1.51157
1.50953
1.50634
1.50169
1.49592
1.48979
1.48375
1.47792
1.47207
1.46604
1.45882
1.45168
1.44497
1.43858
1.43348
1.42965
1.42585
1.42265
1.4189
1.41368
1.40584
1.39589
1.38677
1.37883
1.37226
1.36969
1.36888
1.36779
1.36597
1.36264
1.35822
1.35238
1.34448
1.3368
1.32952
1.32253
1.31694
1.31398
1.31251
1.30853
1.30199
1.29446
1.28884
1.28727
1.28602
1.28303
1.2776
1.27185
1.2682
1.26626
1.26312
1.25755
1.25034
1.24226
1.23382
1.22528
1.21629
1.21055
1.21041
1.20783
1.20297
1.19692
1.18972
1.18165
1.17414
1.16646
1.16844
1.16456
1.1235
1.10959
1.10825
1.10393
1.09924
1.1021
1.11087
1.1162
1.11642
1.11795
1.13098
1.13785
1.14474
1.15123
1.16322
1.17486
1.18461
1.19638
1.21095
1.22505
1.23913
1.25648
1.27304
1.29024
1.30811
1.32664
1.34549
1.36589
1.38621
1.40505
1.43094
1.45562
1.47761
1.49968
1.528
1.55681
1.58368
1.61234
1.64193
1.67189
1.70135
1.73209
1.76065
1.78686
1.80978
1.82856
1.84264
1.8514
1.85381
1.84961
1.84023
1.82493
1.8045
1.77905
1.74904
1.71581
1.6789
1.64322
1.60672
1.5705
1.53575
1.50314
1.46914
1.43192
1.40598
1.37963
1.35517
1.32512
1.30196
1.28132
1.26072
1.23987
1.21994
1.2027
1.18058
1.16586
1.14852
1.13413
1.11738
1.10025
1.09114
1.07441
1.05943
1.05485
1.04127
1.02894
1.01937
1.0119
1.00673
0.995922
0.990274
0.985333
0.975464
0.96655
0.963691
0.964168
0.96002
0.948737
0.941083
0.942733
0.945136
0.940865
0.932453
0.924978
0.924107
0.927464
0.929585
0.926682
0.919897
0.915298
0.915509
0.92156
0.933588
1.09029
1.27051
1.29725
1.29523
1.28925
1.28661
1.2888
1.29389
1.29955
1.30392
1.30646
1.30722
1.30815
1.30936
1.3104
1.31095
1.31215
1.31267
1.31412
1.31657
1.3208
1.32607
1.33187
1.33678
1.34161
1.34755
1.35345
1.35962
1.36632
1.37312
1.37955
1.38779
1.3959
1.40027
1.40181
1.40782
1.41831
1.42761
1.43019
1.43117
1.43976
1.45195
1.46346
1.4706
1.47424
1.47739
1.47985
1.48218
1.48469
1.48655
1.48805
1.49164
1.49662
1.50161
1.50457
1.50682
1.51063
1.52287
1.53449
1.55463
1.53772
1.54302
1.55883
1.54794
1.53411
1.52647
1.52378
1.5215
1.52002
1.51796
1.5149
1.51107
1.50565
1.50025
1.49442
1.48824
1.48175
1.47478
1.46674
1.4588
1.44985
1.44138
1.43279
1.42522
1.4186
1.41344
1.41045
1.41005
1.4072
1.4016
1.39549
1.38685
1.37685
1.36862
1.36289
1.3593
1.35689
1.35542
1.35405
1.3523
1.34823
1.34346
1.33809
1.33047
1.32296
1.3194
1.31898
1.31623
1.31088
1.30254
1.29307
1.28516
1.28013
1.27604
1.2713
1.26579
1.26059
1.25718
1.25652
1.25522
1.25084
1.24551
1.24013
1.23341
1.22246
1.21111
1.20524
1.20108
1.19778
1.19527
1.19018
1.1833
1.17684
1.17173
1.17625
1.16878
1.12137
1.10403
1.10825
1.10792
1.10616
1.10241
1.10574
1.11671
1.12223
1.12188
1.12935
1.13836
1.14751
1.15405
1.16221
1.17655
1.18856
1.1971
1.21324
1.22887
1.24267
1.25903
1.27691
1.2949
1.31276
1.33189
1.35098
1.36985
1.39345
1.41337
1.43249
1.46039
1.48821
1.50996
1.53438
1.56323
1.59142
1.61988
1.64901
1.67816
1.70662
1.73639
1.76295
1.78755
1.80873
1.82641
1.83973
1.8477
1.84981
1.84605
1.83734
1.82286
1.80376
1.78046
1.75233
1.72167
1.68657
1.65222
1.61685
1.58153
1.54718
1.51277
1.47735
1.44653
1.41934
1.39353
1.35924
1.33319
1.31255
1.2902
1.26803
1.24745
1.22616
1.20771
1.18721
1.17244
1.15337
1.13787
1.11909
1.1061
1.09336
1.07441
1.06394
1.05651
1.04004
1.02813
1.02403
1.01746
1.00747
0.995609
0.994473
0.985517
0.97224
0.971285
0.970716
0.964289
0.953917
0.946538
0.947461
0.948687
0.945384
0.935444
0.928658
0.928142
0.93214
0.932209
0.929348
0.920369
0.916301
0.917335
0.923598
0.924906
0.932912
1.08274
1.26696
1.28992
1.29034
1.2911
1.29595
1.30171
1.30224
1.30085
1.29938
1.29835
1.298
1.29733
1.29803
1.29971
1.30254
1.30647
1.31061
1.31568
1.32226
1.32907
1.33578
1.34244
1.34817
1.35391
1.35937
1.36486
1.37089
1.37561
1.38104
1.38653
1.39245
1.39873
1.40215
1.40714
1.41482
1.42211
1.42724
1.43221
1.44032
1.4493
1.45718
1.46303
1.46431
1.46456
1.46627
1.46962
1.47349
1.47719
1.48174
1.48743
1.49393
1.50003
1.5048
1.50766
1.50946
1.51136
1.5187
1.537
1.56029
1.5503
1.54352
1.56735
1.56196
1.55089
1.54361
1.53356
1.52615
1.52132
1.51729
1.51352
1.50957
1.50537
1.50081
1.49583
1.49036
1.48434
1.47803
1.47206
1.46544
1.45824
1.45044
1.44173
1.43166
1.42183
1.41351
1.40689
1.40182
1.39961
1.39975
1.39564
1.39064
1.38523
1.37748
1.36811
1.36066
1.35499
1.35056
1.34642
1.34381
1.34406
1.34269
1.33874
1.33455
1.32961
1.32411
1.31918
1.31619
1.31173
1.30716
1.30175
1.29383
1.2853
1.27895
1.27435
1.26937
1.26284
1.25651
1.25137
1.24741
1.24396
1.24219
1.23981
1.23456
1.22823
1.2205
1.20955
1.20149
1.19521
1.1891
1.18472
1.18083
1.17584
1.17254
1.17832
1.17593
1.12673
1.10494
1.10304
1.10906
1.1105
1.10967
1.1066
1.11334
1.12391
1.12884
1.1307
1.13753
1.14918
1.15963
1.16376
1.17687
1.19204
1.20032
1.21472
1.2313
1.24749
1.26259
1.2801
1.29904
1.31737
1.33681
1.35628
1.37499
1.39643
1.42186
1.44116
1.4612
1.48899
1.52279
1.54487
1.56913
1.59769
1.62647
1.65483
1.68338
1.71161
1.74038
1.76553
1.78848
1.80804
1.82399
1.83559
1.84221
1.84409
1.84086
1.83341
1.82072
1.80328
1.78195
1.75593
1.72699
1.69351
1.65981
1.62551
1.59135
1.55616
1.52131
1.49137
1.46556
1.43068
1.39312
1.36865
1.34499
1.32314
1.29528
1.27546
1.25428
1.23229
1.2138
1.19408
1.17771
1.1571
1.1402
1.12275
1.11008
1.09424
1.07764
1.07085
1.0573
1.04107
1.03108
1.02957
1.0194
1.00377
0.999679
0.995847
0.981306
0.975281
0.978099
0.972228
0.9605
0.952947
0.952756
0.953559
0.949475
0.940821
0.933865
0.933139
0.936685
0.934594
0.932278
0.923748
0.919672
0.921587
0.925948
0.925257
0.923453
0.926508
1.0746
1.26331
1.29415
1.29987
1.30267
1.30229
1.2993
1.294
1.29042
1.28944
1.29053
1.29307
1.29591
1.29982
1.30442
1.31033
1.31663
1.32299
1.32886
1.33447
1.33866
1.34309
1.34667
1.35114
1.35586
1.35986
1.36432
1.36905
1.37333
1.37785
1.38161
1.38497
1.38697
1.39206
1.40255
1.41017
1.41325
1.41538
1.42506
1.43844
1.44681
1.45024
1.45006
1.45369
1.45975
1.46587
1.47247
1.4792
1.4862
1.49392
1.50154
1.5072
1.51163
1.51528
1.51889
1.52412
1.53108
1.53419
1.54175
1.55194
1.54259
1.55209
1.57122
1.56833
1.56024
1.54465
1.53134
1.52405
1.51791
1.51213
1.50714
1.50285
1.49892
1.49456
1.49007
1.48518
1.48003
1.4751
1.47
1.46444
1.45831
1.45145
1.44463
1.43793
1.43044
1.42161
1.41187
1.40275
1.39649
1.39214
1.39028
1.38892
1.38549
1.3805
1.37549
1.36886
1.36119
1.35429
1.34772
1.34221
1.33793
1.33511
1.3341
1.33317
1.32972
1.32401
1.31558
1.30907
1.30692
1.30593
1.30245
1.29804
1.29273
1.2868
1.28151
1.27651
1.27137
1.26397
1.25499
1.24804
1.24229
1.23695
1.23314
1.23141
1.22879
1.22319
1.21662
1.20825
1.19904
1.19063
1.1834
1.17753
1.17209
1.16865
1.17762
1.17775
1.13239
1.11222
1.10358
1.10541
1.11136
1.11436
1.11399
1.11377
1.12192
1.1308
1.13674
1.13958
1.14841
1.16192
1.1698
1.17755
1.19404
1.20606
1.21826
1.23323
1.25101
1.26739
1.2842
1.30261
1.32163
1.34143
1.36131
1.38147
1.40023
1.42403
1.45159
1.47081
1.49262
1.51746
1.55208
1.57709
1.6035
1.63171
1.65967
1.68726
1.71452
1.74137
1.7649
1.78669
1.80499
1.81969
1.83013
1.83608
1.83782
1.83483
1.82794
1.8164
1.8002
1.78019
1.75578
1.72881
1.6978
1.66563
1.6327
1.59888
1.56452
1.533
1.50384
1.46418
1.43097
1.40542
1.38113
1.35667
1.32632
1.30339
1.28275
1.26019
1.23928
1.22092
1.19911
1.18119
1.16176
1.14458
1.13037
1.11241
1.09701
1.08631
1.07381
1.05788
1.04621
1.03896
1.03158
1.01679
1.00443
1.00553
0.995729
0.982759
0.983544
0.980086
0.968876
0.958609
0.958307
0.959481
0.954941
0.944613
0.938956
0.938476
0.940636
0.938365
0.934158
0.927517
0.922878
0.92533
0.928357
0.927742
0.924118
0.919097
0.925475
1.07963
1.27607
1.30472
1.30477
1.30247
1.2966
1.29084
1.28899
1.28972
1.29233
1.29615
1.3008
1.3058
1.31037
1.315
1.31916
1.32332
1.32724
1.33165
1.33524
1.33915
1.34182
1.34428
1.34767
1.35116
1.35424
1.35779
1.35976
1.3632
1.36724
1.37135
1.37535
1.38038
1.38759
1.39518
1.40027
1.40498
1.41159
1.42193
1.43125
1.43647
1.43962
1.44595
1.4542
1.46452
1.47484
1.48345
1.4909
1.49696
1.50196
1.50628
1.50976
1.51282
1.51611
1.52008
1.52771
1.54182
1.55653
1.55458
1.55017
1.52871
1.55969
1.57075
1.5681
1.5577
1.53931
1.52795
1.52148
1.51579
1.51029
1.50491
1.49985
1.49521
1.49037
1.48524
1.48
1.47437
1.46887
1.46312
1.45776
1.45246
1.4471
1.44217
1.43715
1.43122
1.425
1.4184
1.41076
1.4011
1.39282
1.38735
1.38285
1.3802
1.37862
1.37562
1.37126
1.36647
1.36128
1.35561
1.3483
1.3407
1.3348
1.3305
1.3268
1.32411
1.32017
1.31443
1.30811
1.30341
1.29937
1.29766
1.29669
1.29322
1.28777
1.28249
1.27752
1.27306
1.26841
1.26253
1.2557
1.24789
1.24003
1.23304
1.22779
1.22369
1.22132
1.21778
1.21155
1.20497
1.19771
1.18901
1.18095
1.17413
1.16833
1.17396
1.17529
1.13336
1.11605
1.11031
1.1053
1.10754
1.11486
1.11847
1.1192
1.12021
1.13032
1.13908
1.14469
1.1498
1.16192
1.17336
1.18187
1.19405
1.20892
1.22249
1.23677
1.25306
1.27094
1.28832
1.30636
1.32512
1.34537
1.36545
1.3879
1.40805
1.42717
1.45182
1.4834
1.50425
1.52511
1.55176
1.58343
1.60985
1.63657
1.66404
1.69086
1.717
1.74198
1.76402
1.7843
1.80091
1.81426
1.82367
1.82905
1.83068
1.82787
1.82145
1.81093
1.79611
1.77786
1.7552
1.73018
1.70145
1.67086
1.63893
1.60609
1.57433
1.543
1.50406
1.47209
1.4444
1.42077
1.39126
1.35773
1.33527
1.31235
1.28899
1.26638
1.2457
1.22647
1.20272
1.18588
1.16718
1.15092
1.13466
1.11415
1.10341
1.09006
1.07314
1.06182
1.05196
1.04172
1.03116
1.01648
1.01155
1.00755
0.9958
0.990183
0.986017
0.978218
0.967213
0.964011
0.965301
0.960742
0.951058
0.944131
0.944069
0.945188
0.942295
0.936189
0.930541
0.928019
0.929527
0.930734
0.929458
0.92561
0.920631
0.92084
0.930381
1.08581
1.28902
1.30656
1.30161
1.29626
1.2928
1.2921
1.29507
1.29901
1.30211
1.30477
1.30722
1.30985
1.31282
1.31575
1.31894
1.32155
1.32409
1.32607
1.32766
1.32987
1.33251
1.33641
1.34048
1.3446
1.34913
1.35354
1.35825
1.36318
1.36803
1.37366
1.37943
1.38644
1.39351
1.39772
1.40196
1.40965
1.41948
1.42623
1.43039
1.43535
1.44286
1.45438
1.46618
1.47463
1.48097
1.48632
1.49087
1.49528
1.49875
1.50102
1.50275
1.50563
1.51024
1.51657
1.52389
1.53559
1.55597
1.56841
1.56308
1.53892
1.55877
1.56573
1.56203
1.55114
1.53369
1.52734
1.52307
1.51894
1.51487
1.51032
1.5051
1.49931
1.49373
1.48834
1.48284
1.47679
1.47041
1.46372
1.45725
1.45056
1.44431
1.43769
1.43183
1.42699
1.42253
1.4178
1.41238
1.4068
1.39991
1.39173
1.38415
1.37839
1.3742
1.37091
1.36859
1.36553
1.3615
1.35683
1.35236
1.34739
1.3415
1.33443
1.32802
1.32326
1.32021
1.31787
1.31392
1.30746
1.30052
1.29561
1.2917
1.28881
1.28504
1.27979
1.27433
1.2704
1.26736
1.26322
1.25776
1.25204
1.24636
1.23968
1.23138
1.22345
1.2178
1.21446
1.21063
1.20548
1.19955
1.19296
1.18616
1.17933
1.17331
1.17618
1.17369
1.13012
1.11544
1.11339
1.11066
1.10774
1.11134
1.11832
1.12328
1.12398
1.12864
1.1389
1.14689
1.15447
1.1619
1.17381
1.18646
1.19646
1.20974
1.22523
1.2405
1.25607
1.27313
1.29145
1.31029
1.32905
1.34915
1.36985
1.39035
1.4156
1.43675
1.45669
1.48005
1.51214
1.53912
1.55959
1.58617
1.61455
1.64106
1.66732
1.69306
1.718
1.74122
1.76202
1.78076
1.79599
1.80814
1.81661
1.82148
1.823
1.82036
1.81439
1.80474
1.79112
1.77428
1.75334
1.72986
1.70327
1.67431
1.64395
1.61309
1.5814
1.54674
1.51458
1.48887
1.46067
1.42429
1.39339
1.368
1.34648
1.31972
1.29483
1.27306
1.25116
1.23014
1.20784
1.19178
1.17126
1.15472
1.13679
1.11848
1.10785
1.09002
1.07455
1.06679
1.05402
1.04118
1.03125
1.0222
1.01593
1.0063
0.998972
0.993121
0.984573
0.977037
0.972297
0.970328
0.965965
0.957441
0.950737
0.949973
0.949793
0.946087
0.939302
0.934106
0.932573
0.934138
0.93337
0.930874
0.926129
0.923373
0.92321
0.926329
0.933214
1.08634
1.29067
1.30254
1.29953
1.29747
1.298
1.30062
1.30187
1.30253
1.30366
1.30514
1.3063
1.30764
1.30896
1.31076
1.31258
1.31502
1.31801
1.32126
1.32493
1.32875
1.33348
1.33858
1.34337
1.34822
1.35355
1.3586
1.36522
1.37118
1.37688
1.38312
1.38935
1.39564
1.40053
1.40486
1.41096
1.41925
1.42626
1.43142
1.43584
1.44342
1.45383
1.4619
1.46814
1.47383
1.47795
1.48142
1.48433
1.48713
1.48987
1.49271
1.49696
1.50146
1.50711
1.51352
1.51995
1.52682
1.54327
1.55775
1.56821
1.56225
1.54439
1.55453
1.55393
1.54538
1.53765
1.53475
1.52933
1.52382
1.51907
1.51476
1.51027
1.50523
1.4999
1.49444
1.48886
1.48299
1.47686
1.47027
1.46324
1.45526
1.44738
1.43944
1.43179
1.42522
1.41913
1.4138
1.40965
1.4057
1.40093
1.39553
1.38984
1.38284
1.37581
1.37011
1.36568
1.36168
1.35796
1.35434
1.35103
1.34758
1.34338
1.339
1.33385
1.3281
1.32372
1.32013
1.3165
1.31209
1.30656
1.29971
1.2931
1.28808
1.28368
1.27889
1.27348
1.26831
1.2638
1.25972
1.2557
1.25112
1.24671
1.24166
1.23603
1.22868
1.2201
1.21385
1.2083
1.20291
1.19755
1.19224
1.1864
1.18037
1.17581
1.18118
1.17743
1.13065
1.11299
1.11247
1.11358
1.11301
1.11225
1.11585
1.12343
1.12898
1.13141
1.13877
1.14675
1.15703
1.16504
1.17339
1.188
1.20051
1.21211
1.22723
1.24298
1.2598
1.27639
1.29448
1.314
1.33333
1.35349
1.37473
1.39574
1.41709
1.44386
1.46744
1.48743
1.51118
1.54135
1.56995
1.5923
1.6185
1.64486
1.67033
1.69477
1.71822
1.73982
1.75919
1.77632
1.79024
1.80128
1.80893
1.81332
1.81473
1.81223
1.80667
1.79778
1.7853
1.76982
1.75072
1.72883
1.70427
1.67714
1.64861
1.61861
1.58689
1.55578
1.5298
1.49652
1.46082
1.43071
1.40592
1.38142
1.35308
1.32505
1.3029
1.27989
1.25598
1.2357
1.21404
1.19624
1.17479
1.15757
1.13999
1.12367
1.10971
1.09063
1.07956
1.06939
1.05429
1.04186
1.03518
1.02735
1.01559
1.00691
1.00212
0.992751
0.983459
0.9809
0.97714
0.970423
0.962883
0.957697
0.95577
0.953831
0.94958
0.94333
0.938859
0.93751
0.937671
0.936044
0.932526
0.928175
0.925981
0.926514
0.92814
0.927605
0.932335
1.08005
1.28656
1.30314
1.30417
1.30442
1.30366
1.30274
1.3017
1.30042
1.30023
1.30075
1.3022
1.30421
1.30682
1.30956
1.31283
1.31668
1.32102
1.32583
1.33133
1.3365
1.34155
1.34608
1.35045
1.35507
1.35987
1.3646
1.36926
1.37405
1.37902
1.3839
1.38942
1.39442
1.39903
1.40519
1.41196
1.41876
1.42388
1.43044
1.43866
1.44713
1.45403
1.4592
1.46318
1.46732
1.47192
1.47662
1.48075
1.48492
1.48951
1.49496
1.50102
1.50709
1.51265
1.51784
1.52242
1.52489
1.53127
1.54258
1.54996
1.55354
1.5301
1.54579
1.55425
1.55219
1.54877
1.53791
1.5286
1.5222
1.51674
1.51215
1.50764
1.50283
1.49792
1.4928
1.48746
1.48185
1.47616
1.47024
1.46393
1.45739
1.45055
1.44358
1.43638
1.42855
1.42098
1.41401
1.40819
1.40283
1.39844
1.39429
1.38999
1.38508
1.37974
1.37396
1.36799
1.36257
1.35775
1.35323
1.34882
1.34487
1.34137
1.33792
1.33422
1.32961
1.32464
1.31939
1.31476
1.31104
1.30711
1.3025
1.29744
1.29187
1.28617
1.2814
1.27639
1.27101
1.26526
1.25962
1.25453
1.24927
1.24438
1.23993
1.23554
1.23024
1.22394
1.21707
1.21001
1.20345
1.19711
1.19084
1.18487
1.17897
1.17486
1.18164
1.18073
1.13444
1.11502
1.11156
1.11274
1.11525
1.11703
1.1177
1.1223
1.1297
1.13587
1.14146
1.14775
1.1578
1.16854
1.17648
1.18846
1.20291
1.21588
1.22995
1.24541
1.2629
1.28005
1.29804
1.3177
1.33775
1.35837
1.37942
1.40256
1.42366
1.44595
1.47307
1.49995
1.52065
1.5435
1.571
1.59814
1.62284
1.64756
1.6721
1.6954
1.71736
1.73752
1.7555
1.77115
1.78387
1.79386
1.80076
1.80469
1.806
1.80362
1.79846
1.79029
1.77887
1.7646
1.74708
1.72675
1.70389
1.67867
1.65162
1.62272
1.59362
1.56487
1.53234
1.49941
1.47163
1.446
1.4187
1.38625
1.35912
1.33431
1.31153
1.28557
1.26232
1.24213
1.21923
1.1999
1.17893
1.16134
1.1448
1.12646
1.1116
1.09578
1.0837
1.07088
1.05659
1.04605
1.03922
1.02793
1.01506
1.01052
1.00352
0.992634
0.986792
0.984584
0.977197
0.96842
0.963841
0.962119
0.958448
0.952832
0.947604
0.944079
0.942503
0.940938
0.938381
0.934784
0.931281
0.929285
0.929707
0.929689
0.928487
0.925993
0.930164
1.07959
1.29022
1.30969
1.30819
1.30614
1.30334
1.30066
1.29879
1.29882
1.29963
1.30146
1.30386
1.3069
1.31038
1.31416
1.31831
1.3223
1.3264
1.33052
1.33451
1.3384
1.34246
1.34622
1.35029
1.35455
1.35868
1.36311
1.3671
1.37137
1.37601
1.38051
1.38517
1.38989
1.39568
1.40266
1.40891
1.41426
1.41993
1.42829
1.43697
1.44409
1.4493
1.45449
1.46031
1.46647
1.473
1.47932
1.48551
1.49184
1.4978
1.50318
1.50777
1.51234
1.51729
1.52312
1.5314
1.53927
1.53746
1.53513
1.53222
1.52983
1.53894
1.55691
1.56138
1.55712
1.54436
1.53367
1.52605
1.5196
1.51397
1.50929
1.50486
1.50021
1.49535
1.49033
1.48507
1.47948
1.4739
1.46809
1.46218
1.45592
1.4494
1.44283
1.43655
1.43016
1.42378
1.41718
1.41026
1.4037
1.39803
1.393
1.38812
1.38369
1.3793
1.37487
1.37032
1.36549
1.36052
1.35533
1.35006
1.34508
1.34061
1.33634
1.33232
1.32841
1.32396
1.31905
1.31408
1.30954
1.30522
1.3013
1.29754
1.29301
1.28794
1.28287
1.27784
1.27316
1.26824
1.26254
1.25658
1.25067
1.24499
1.23967
1.2343
1.22902
1.22393
1.2186
1.21259
1.20618
1.19939
1.19246
1.18594
1.17969
1.17476
1.18051
1.18038
1.13614
1.11826
1.11389
1.11261
1.11457
1.11878
1.12166
1.12437
1.12931
1.13696
1.14445
1.15092
1.15916
1.16989
1.18078
1.19123
1.20411
1.21849
1.23272
1.24833
1.26557
1.28367
1.30203
1.32177
1.34217
1.36358
1.38476
1.40736
1.43186
1.45372
1.47593
1.50215
1.52998
1.55308
1.57549
1.6012
1.62636
1.65014
1.67334
1.69514
1.71577
1.73442
1.75102
1.76529
1.7769
1.78592
1.79215
1.79564
1.79685
1.79457
1.78979
1.78226
1.77181
1.75867
1.74263
1.72392
1.70272
1.67921
1.65384
1.62687
1.59914
1.5693
1.53861
1.51213
1.48542
1.45418
1.4229
1.39414
1.37006
1.34362
1.31732
1.29232
1.2697
1.24804
1.2237
1.20506
1.18359
1.16577
1.14827
1.12867
1.11562
1.1007
1.08504
1.0733
1.06097
1.04967
1.04043
1.02838
1.01802
1.01315
1.00453
0.995495
0.990266
0.984906
0.976744
0.970237
0.967766
0.964003
0.95781
0.952274
0.949341
0.947585
0.944686
0.940765
0.937479
0.934986
0.933163
0.932454
0.931248
0.929467
0.927513
0.926272
0.931179
1.08105
1.29714
1.31204
1.3077
1.30462
1.30194
1.30047
1.30036
1.30155
1.30328
1.30534
1.30758
1.31009
1.3128
1.31579
1.31892
1.32234
1.3258
1.32928
1.33278
1.33638
1.33993
1.34386
1.34814
1.3524
1.35669
1.36117
1.36577
1.37045
1.37521
1.38027
1.38538
1.39089
1.39688
1.40273
1.40841
1.41461
1.4216
1.429
1.43596
1.44235
1.44856
1.45591
1.46383
1.47155
1.47809
1.48366
1.48836
1.493
1.49727
1.50139
1.50534
1.50961
1.51469
1.52085
1.52824
1.53851
1.54942
1.54969
1.53666
1.51963
1.55062
1.55654
1.55327
1.54878
1.53707
1.53012
1.5258
1.52026
1.51524
1.51064
1.5059
1.50086
1.49584
1.49073
1.48544
1.47978
1.47402
1.46799
1.46174
1.45516
1.44852
1.44189
1.43554
1.42941
1.42337
1.41731
1.41142
1.40568
1.39991
1.39411
1.38852
1.38331
1.3786
1.37417
1.36987
1.36547
1.36091
1.35634
1.35177
1.34711
1.34231
1.33746
1.33274
1.32831
1.32407
1.32002
1.31563
1.31069
1.30562
1.30095
1.29661
1.29239
1.2876
1.28256
1.27744
1.27274
1.26833
1.26336
1.25804
1.25259
1.24716
1.24153
1.23551
1.22929
1.22346
1.21827
1.21276
1.20699
1.20081
1.19445
1.18804
1.18175
1.17671
1.18168
1.18058
1.13579
1.11889
1.11625
1.11503
1.11543
1.11846
1.12289
1.12753
1.13144
1.13743
1.14569
1.15346
1.16194
1.171
1.1826
1.19458
1.20656
1.22057
1.23547
1.25157
1.26885
1.28698
1.30599
1.32615
1.34669
1.36856
1.39073
1.41267
1.4361
1.4611
1.48431
1.50681
1.53173
1.55769
1.58172
1.60487
1.62856
1.65159
1.67363
1.6941
1.71338
1.7306
1.74588
1.75886
1.76942
1.77755
1.78317
1.78629
1.78736
1.78517
1.78075
1.77381
1.76425
1.75218
1.73749
1.72024
1.70065
1.67871
1.65513
1.62964
1.60267
1.57484
1.54775
1.51991
1.48971
1.46003
1.43289
1.40603
1.37938
1.35006
1.32484
1.30071
1.27681
1.25358
1.22986
1.21094
1.18854
1.17007
1.15158
1.13249
1.11973
1.10264
1.08699
1.07697
1.06373
1.05106
1.04177
1.03152
1.02174
1.01434
1.00664
0.99865
0.991039
0.985552
0.979109
0.973671
0.969137
0.964144
0.958487
0.954687
0.952146
0.948809
0.944649
0.940879
0.938709
0.937244
0.935366
0.933232
0.931111
0.929484
0.928784
0.928143
0.932455
1.08148
1.2989
1.31108
1.3073
1.30522
1.30354
1.30314
1.30321
1.30364
1.30453
1.30589
1.30777
1.30989
1.31239
1.31517
1.31817
1.32144
1.3249
1.32848
1.33223
1.33612
1.34021
1.34443
1.34878
1.35316
1.35779
1.36241
1.36726
1.37225
1.37721
1.38258
1.38803
1.39363
1.39919
1.40458
1.41047
1.41739
1.42419
1.43074
1.43697
1.44402
1.45164
1.45902
1.46556
1.47168
1.47717
1.48216
1.48656
1.49069
1.49462
1.49851
1.50232
1.50662
1.51165
1.51767
1.52324
1.53005
1.54125
1.54648
1.54978
1.53175
1.53663
1.54254
1.54234
1.53986
1.53473
1.53297
1.52737
1.52113
1.51617
1.5118
1.50723
1.50221
1.49715
1.49203
1.48675
1.48112
1.47539
1.46937
1.46304
1.45627
1.44941
1.44243
1.43568
1.42915
1.42287
1.41681
1.41111
1.40569
1.40042
1.39514
1.38985
1.38448
1.37923
1.37427
1.36964
1.36512
1.36067
1.3562
1.35178
1.34741
1.34309
1.33872
1.33421
1.3296
1.32514
1.32087
1.31652
1.31197
1.30722
1.30223
1.29736
1.29267
1.28782
1.28285
1.27776
1.27294
1.26825
1.26322
1.25802
1.25277
1.24769
1.24253
1.237
1.23097
1.22464
1.21887
1.21307
1.2072
1.20107
1.19496
1.18884
1.18275
1.17808
1.18352
1.18247
1.1372
1.11941
1.11713
1.11699
1.11796
1.11998
1.12353
1.12885
1.13434
1.13968
1.147
1.15499
1.16423
1.17358
1.18407
1.19649
1.20943
1.22332
1.23832
1.25487
1.27268
1.29091
1.31017
1.33074
1.35144
1.37324
1.39599
1.41902
1.44161
1.46539
1.49042
1.51444
1.53733
1.56077
1.58489
1.60829
1.63073
1.65244
1.67311
1.69237
1.71022
1.7261
1.74011
1.75191
1.7615
1.76883
1.77388
1.77666
1.77758
1.77547
1.77138
1.76499
1.75625
1.74517
1.7317
1.71586
1.6978
1.67744
1.65541
1.63144
1.60616
1.5803
1.55291
1.52463
1.49697
1.47004
1.44312
1.41419
1.38646
1.35884
1.3343
1.30852
1.28336
1.26053
1.23678
1.21669
1.19386
1.1748
1.15606
1.13677
1.12266
1.10535
1.09064
1.0797
1.06571
1.05281
1.04439
1.0349
1.02333
1.01593
1.00941
1.00017
0.99228
0.987987
0.982021
0.974917
0.96972
0.965439
0.960984
0.956783
0.953017
0.94934
0.94562
0.942785
0.940811
0.938611
0.935997
0.933565
0.931974
0.931138
0.930625
0.928995
0.932708
1.07991
1.29914
1.31243
1.30895
1.30725
1.3054
1.30424
1.30357
1.30362
1.30445
1.30592
1.30783
1.3101
1.31275
1.31569
1.31895
1.32246
1.32614
1.33001
1.33405
1.33811
1.34225
1.34635
1.35059
1.35501
1.35956
1.36409
1.36869
1.37335
1.37819
1.38328
1.38851
1.39379
1.39919
1.40501
1.41127
1.41776
1.42399
1.43078
1.43801
1.44545
1.45225
1.45861
1.46448
1.47014
1.47543
1.4805
1.48517
1.4897
1.49422
1.49873
1.50334
1.50813
1.51307
1.51824
1.52318
1.52564
1.53083
1.53576
1.53901
1.53874
1.52234
1.53129
1.53894
1.53961
1.53841
1.53326
1.52602
1.51994
1.51491
1.51064
1.50626
1.50142
1.49655
1.49157
1.48639
1.48087
1.47527
1.46942
1.46331
1.45679
1.45009
1.44333
1.43673
1.43015
1.4237
1.41738
1.41141
1.40575
1.40041
1.3952
1.39012
1.38511
1.38022
1.37535
1.37055
1.36583
1.3612
1.35659
1.35202
1.34755
1.34322
1.33894
1.33464
1.33029
1.32584
1.32129
1.31673
1.3122
1.30763
1.30306
1.29853
1.29389
1.28897
1.28401
1.27899
1.27412
1.2692
1.26393
1.25857
1.25322
1.24805
1.24293
1.23747
1.23179
1.22596
1.22029
1.21434
1.20825
1.20195
1.19574
1.18958
1.18348
1.1788
1.18432
1.18391
1.13928
1.12133
1.11841
1.11801
1.11976
1.12247
1.1255
1.13
1.13583
1.14203
1.14909
1.15683
1.16595
1.17613
1.18681
1.19849
1.21206
1.22657
1.2416
1.25848
1.27653
1.29523
1.31475
1.33565
1.35669
1.37845
1.40101
1.42441
1.44795
1.47102
1.49475
1.51884
1.54258
1.56542
1.58786
1.61028
1.63199
1.65246
1.67188
1.68987
1.70639
1.72099
1.73379
1.7445
1.75319
1.75978
1.76432
1.76681
1.76756
1.76553
1.76174
1.75587
1.74787
1.73772
1.72537
1.71083
1.69418
1.67538
1.65479
1.63252
1.60868
1.58375
1.55745
1.53136
1.5047
1.47737
1.44974
1.42147
1.39527
1.36827
1.34256
1.31576
1.29098
1.26801
1.24336
1.2226
1.19955
1.18005
1.16089
1.14062
1.12615
1.10975
1.094
1.0822
1.06822
1.05559
1.04698
1.03678
1.0251
1.01832
1.01133
1.00188
0.994814
0.990351
0.983502
0.976152
0.971468
0.967945
0.962835
0.957829
0.954046
0.950916
0.947732
0.944488
0.941874
0.939495
0.937006
0.935007
0.933727
0.932574
0.931548
0.929584
0.932967
1.07987
1.30195
1.31495
1.31018
1.30806
1.3059
1.30461
1.30405
1.30446
1.30558
1.30727
1.30937
1.31179
1.3145
1.31747
1.32071
1.32414
1.3277
1.33143
1.3352
1.33907
1.34302
1.34702
1.35123
1.3556
1.36004
1.36453
1.36906
1.37371
1.37853
1.38357
1.38876
1.39405
1.39958
1.40545
1.41156
1.41783
1.42418
1.43122
1.43842
1.44539
1.45184
1.45815
1.46431
1.47041
1.47616
1.48157
1.48646
1.49112
1.49572
1.50014
1.50437
1.50876
1.51356
1.51871
1.52498
1.53022
1.53059
1.52809
1.5264
1.52673
1.5248
1.53618
1.54074
1.54047
1.53553
1.5296
1.52414
1.51901
1.51427
1.51009
1.50572
1.50096
1.49622
1.49137
1.48627
1.48082
1.47529
1.4695
1.46344
1.45699
1.45033
1.44368
1.43721
1.43078
1.42449
1.41833
1.4124
1.40666
1.40112
1.39578
1.39063
1.38557
1.38072
1.37601
1.37139
1.36678
1.36219
1.35758
1.35298
1.34841
1.34395
1.33955
1.3352
1.33089
1.32653
1.32209
1.31747
1.31277
1.30813
1.30357
1.29913
1.29462
1.2898
1.28483
1.27981
1.27504
1.27031
1.26517
1.25976
1.25435
1.24908
1.2438
1.23822
1.23248
1.22673
1.22126
1.21551
1.20953
1.20327
1.19709
1.1909
1.1848
1.18
1.18519
1.18469
1.14084
1.12316
1.12033
1.11955
1.12106
1.12402
1.12754
1.13192
1.13726
1.14357
1.15111
1.15917
1.16796
1.17829
1.18955
1.20138
1.21496
1.2298
1.24508
1.26232
1.28049
1.29956
1.31941
1.34058
1.36207
1.38411
1.40661
1.42965
1.45343
1.47685
1.50023
1.52331
1.54621
1.56886
1.59084
1.61197
1.63248
1.65177
1.67002
1.68668
1.70192
1.71531
1.72698
1.73669
1.74453
1.75046
1.75451
1.75675
1.75734
1.75539
1.75189
1.74649
1.73917
1.72987
1.71857
1.70523
1.68991
1.67257
1.65346
1.63263
1.61028
1.58673
1.56205
1.53691
1.51054
1.48387
1.45705
1.42984
1.40393
1.37628
1.35014
1.3238
1.29897
1.27509
1.25004
1.22896
1.20538
1.18547
1.16586
1.14504
1.13048
1.11391
1.0971
1.08526
1.07153
1.05828
1.04908
1.03885
1.02774
1.02029
1.01308
1.00411
0.996821
0.991859