/*--------------------------------*- C++ -*----------------------------------*\
| =========                 |                                                 |
| \\      /  F ield         | OpenFOAM: The Open Source CFD Toolbox           |
|  \\    /   O peration     | Version:  4.0                                   |
|   \\  /    A nd           | Web:      www.OpenFOAM.org                      |
|    \\/     M anipulation  |                                                 |
\*---------------------------------------------------------------------------*/
FoamFile
{
    version     2.0;
    format      ascii;
    class       volScalarField;
    location    "50";
    object      T;
}
// * * * * * * * * * * * * * * * * * * * * * * * * * * * * * * * * * * * * * //

dimensions      [0 0 0 1 0 0 0];

internalField   nonuniform List<scalar> 
24651
(
1.05925
1.04382
1.03805
1.04541
1.04192
1.04159
1.04155
1.04098
1.04017
1.03905
1.03795
1.03682
1.03557
1.0342
1.03267
1.031
1.02932
1.02754
1.02574
1.02375
1.02164
1.01931
1.01704
1.01469
1.01264
1.01092
1.00922
1.00816
1.0072
1.00596
1.00432
1.00288
1.00083
0.998752
0.996994
0.995589
0.994443
0.993053
0.992042
0.991127
0.990176
0.989027
0.987683
0.986296
0.984781
0.983404
0.982208
0.980891
0.979368
0.977939
0.975836
0.973708
0.972023
0.970487
0.968904
0.967235
0.965641
0.964119
0.96254
0.96116
0.959912
0.958633
0.957039
0.955228
0.952897
0.950125
0.947957
0.946022
0.943995
0.942156
0.940285
0.938492
0.937302
0.939299
0.938457
0.923092
0.916356
0.915168
0.915667
0.91654
0.916773
0.916399
0.917451
0.919796
0.922221
0.923113
0.924727
0.927696
0.931257
0.933169
0.936499
0.941247
0.943813
0.948094
0.952886
0.956889
0.961705
0.966524
0.971506
0.976348
0.981533
0.986584
0.991746
0.997266
1.00281
1.00793
1.01429
1.02136
1.02736
1.03462
1.04101
1.04818
1.05565
1.06346
1.07154
1.07983
1.08689
1.09498
1.10201
1.10824
1.11345
1.11727
1.11991
1.1207
1.1194
1.11668
1.1125
1.10678
1.09969
1.09139
1.08172
1.07301
1.06277
1.05267
1.04287
1.03356
1.02463
1.01663
1.00792
1.00108
0.993195
0.984888
0.979157
0.973606
0.967327
0.96155
0.956003
0.950919
0.945084
0.939754
0.935433
0.929122
0.924809
0.919243
0.915539
0.910493
0.905632
0.902659
0.898188
0.893538
0.891033
0.889849
0.885383
0.881613
0.880512
0.878285
0.874012
0.872941
0.872899
0.870364
0.866752
0.865563
0.865137
0.864739
0.862491
0.860727
0.859535
0.858842
0.85942
0.858576
0.857513
0.856087
0.855099
0.855309
0.856082
0.856116
0.855695
0.859794
0.920848
0.982818
0.98952
0.98868
0.987883
0.987448
0.986993
0.986455
0.986023
0.985837
0.985827
0.986384
0.986955
0.98756
0.988471
0.989868
0.99134
0.992918
0.994701
0.996169
0.997381
0.998532
0.999622
1.00093
1.00224
1.00346
1.00478
1.00593
1.00711
1.00834
1.00957
1.01061
1.01183
1.01361
1.01595
1.01775
1.01902
1.02037
1.02297
1.026
1.02795
1.02901
1.03035
1.03223
1.03431
1.03608
1.03768
1.03924
1.04083
1.04246
1.04411
1.04501
1.04582
1.04647
1.04689
1.04705
1.04747
1.05082
1.03809
1.05337
1.0477
1.06598
1.07081
1.051
1.04562
1.04222
1.04142
1.04068
1.03975
1.03855
1.03724
1.0358
1.03433
1.03299
1.0317
1.0304
1.02896
1.02748
1.02623
1.02484
1.02336
1.02183
1.02037
1.01887
1.01738
1.01522
1.01235
1.00932
1.00662
1.00467
1.00327
1.00281
1.00248
1.00205
1.00126
0.9998
0.997634
0.995159
0.993095
0.990854
0.989075
0.987614
0.986569
0.986118
0.985499
0.984051
0.981445
0.979469
0.978315
0.977864
0.977591
0.977306
0.97644
0.974795
0.973048
0.97149
0.970144
0.968091
0.965037
0.962488
0.959973
0.957874
0.95604
0.954699
0.954107
0.953562
0.952814
0.950419
0.947257
0.94431
0.941344
0.938853
0.936805
0.935112
0.937206
0.937926
0.92482
0.918965
0.91583
0.914067
0.914775
0.917278
0.919
0.918404
0.918154
0.921337
0.92453
0.925807
0.927076
0.931193
0.934515
0.93665
0.941188
0.944871
0.948523
0.952909
0.957548
0.962155
0.966826
0.9719
0.9769
0.982142
0.987363
0.992834
0.997732
1.00393
1.01027
1.01615
1.02181
1.02992
1.0364
1.043
1.05001
1.0575
1.06516
1.07304
1.08082
1.08826
1.09518
1.10142
1.10717
1.11201
1.11564
1.11909
1.11982
1.11849
1.11505
1.11105
1.10577
1.09931
1.09207
1.08374
1.07455
1.06501
1.05525
1.0457
1.03641
1.02774
1.01964
1.01205
1.00236
0.994632
0.988898
0.981645
0.974617
0.96847
0.962928
0.957134
0.951393
0.946435
0.940468
0.935333
0.929651
0.925227
0.920896
0.915404
0.911211
0.90716
0.902397
0.898486
0.895426
0.892309
0.889214
0.883576
0.882448
0.881653
0.877166
0.875478
0.875525
0.871856
0.867382
0.866804
0.868419
0.867196
0.862975
0.860032
0.860027
0.861467
0.861556
0.858775
0.856249
0.855119
0.855145
0.857292
0.857852
0.856165
0.853554
0.853279
0.858025
0.918711
0.981883
0.990829
0.990565
0.988847
0.986767
0.984626
0.984066
0.983995
0.984659
0.98593
0.98725
0.989028
0.990664
0.992033
0.993048
0.993789
0.994577
0.995216
0.995775
0.996211
0.996761
0.997336
0.99823
0.99928
1.00027
1.00137
1.00253
1.00388
1.00523
1.00675
1.00847
1.01014
1.01205
1.01368
1.01494
1.01708
1.01961
1.02172
1.02316
1.02476
1.02707
1.02962
1.03254
1.0357
1.03827
1.04031
1.0419
1.04306
1.04391
1.0446
1.04507
1.04573
1.04674
1.04759
1.0485
1.04998
1.0532
1.05778
1.06759
1.07123
1.06937
1.06779
1.05231
1.04432
1.04019
1.03968
1.03961
1.03925
1.03871
1.03785
1.03657
1.03496
1.03324
1.03156
1.02995
1.02834
1.02666
1.0247
1.02265
1.02078
1.01892
1.01744
1.0163
1.01521
1.01429
1.0133
1.01181
1.00953
1.00661
1.00396
1.00168
0.999725
0.998991
0.998742
0.998386
0.997878
0.996902
0.995656
0.993896
0.991557
0.989186
0.98696
0.984881
0.983128
0.98216
0.98168
0.980584
0.978632
0.976415
0.974648
0.974219
0.973771
0.972814
0.971134
0.969378
0.96828
0.967671
0.966732
0.964974
0.96273
0.960307
0.957611
0.954891
0.952123
0.950303
0.950245
0.949367
0.947956
0.945995
0.943683
0.941115
0.938663
0.936154
0.936861
0.935688
0.922129
0.917464
0.916979
0.915414
0.91389
0.914604
0.917447
0.919158
0.919093
0.919427
0.923485
0.925652
0.927697
0.92981
0.933713
0.937315
0.940367
0.944191
0.94849
0.952657
0.956848
0.961897
0.966688
0.971595
0.976628
0.981789
0.987012
0.992735
0.998244
1.00336
1.01064
1.01739
1.0233
1.02924
1.03681
1.04443
1.05144
1.05888
1.06651
1.07419
1.08171
1.08951
1.0967
1.10311
1.1087
1.11317
1.11647
1.11846
1.11901
1.11801
1.1159
1.11234
1.10749
1.10129
1.09388
1.08548
1.07605
1.06687
1.05741
1.04794
1.03877
1.03011
1.0209
1.01084
1.00375
0.99656
0.989676
0.981162
0.974694
0.968748
0.962827
0.956879
0.95112
0.946055
0.939482
0.934937
0.929645
0.925324
0.920285
0.91462
0.911574
0.906078
0.90085
0.899258
0.894913
0.890825
0.887637
0.885182
0.883399
0.879556
0.877631
0.876198
0.87287
0.869819
0.868944
0.869229
0.867793
0.863721
0.861082
0.861796
0.862898
0.861498
0.858389
0.855726
0.855513
0.85698
0.857888
0.856942
0.854522
0.852865
0.853088
0.85556
0.86045
0.921132
0.98394
0.989964
0.98842
0.985784
0.984231
0.984555
0.98583
0.987377
0.988495
0.989166
0.989262
0.989374
0.989671
0.989949
0.990054
0.990326
0.990516
0.990806
0.991544
0.992788
0.994255
0.995944
0.997377
0.998771
1.0005
1.00225
1.00407
1.00601
1.00803
1.00987
1.0123
1.01459
1.01576
1.01614
1.01792
1.02106
1.02363
1.02426
1.02444
1.02694
1.03055
1.03382
1.0358
1.03679
1.03759
1.03827
1.03891
1.0396
1.04016
1.04053
1.04152
1.0429
1.04431
1.04521
1.04588
1.04682
1.05071
1.05901
1.07269
1.06917
1.06867
1.06711
1.0528
1.04528
1.04294
1.04229
1.04173
1.04133
1.04078
1.03995
1.0389
1.0374
1.0359
1.03428
1.03258
1.0308
1.02887
1.02652
1.02435
1.02178
1.0194
1.01693
1.01473
1.01281
1.01132
1.0104
1.01032
1.00958
1.00788
1.00615
1.0036
1.00064
0.998284
0.996606
0.995495
0.994791
0.994355
0.993904
0.993414
0.992223
0.990737
0.989128
0.986779
0.984482
0.983355
0.983232
0.982445
0.98091
0.978314
0.97545
0.973116
0.971506
0.970212
0.968744
0.967045
0.965452
0.964412
0.964112
0.96365
0.962346
0.960726
0.959002
0.956936
0.953485
0.949951
0.948027
0.946661
0.945503
0.944718
0.943118
0.940944
0.93882
0.937146
0.938575
0.936167
0.920623
0.914804
0.916033
0.915877
0.915112
0.913968
0.914934
0.918389
0.920105
0.919862
0.922126
0.924863
0.927715
0.929776
0.932382
0.936835
0.940471
0.94324
0.948033
0.952555
0.956547
0.961325
0.966413
0.971526
0.976596
0.981929
0.98728
0.992647
0.999274
1.00467
1.01005
1.01791
1.02538
1.03115
1.03765
1.04542
1.05287
1.0603
1.06785
1.07533
1.08256
1.09004
1.09668
1.10293
1.10824
1.11247
1.11558
1.11737
1.11785
1.11695
1.115
1.11163
1.10705
1.10115
1.09399
1.08631
1.07744
1.06864
1.05946
1.05018
1.04107
1.03181
1.02203
1.01361
1.00622
0.99912
0.989241
0.981741
0.975974
0.969543
0.96298
0.957019
0.950823
0.945423
0.939416
0.935028
0.929269
0.924664
0.919017
0.914845
0.910848
0.904647
0.900969
0.898623
0.893393
0.889506
0.888156
0.886026
0.882488
0.878324
0.877996
0.875047
0.870618
0.870446
0.870415
0.868207
0.864438
0.861922
0.862285
0.862941
0.861958
0.858315
0.855991
0.855948
0.857514
0.857669
0.856789
0.853535
0.852201
0.852716
0.855219
0.855826
0.858998
0.915604
0.97971
0.986281
0.985622
0.985359
0.986464
0.987823
0.987705
0.987015
0.986409
0.98596
0.985768
0.985534
0.985649
0.986159
0.98699
0.988091
0.989361
0.990818
0.992728
0.994788
0.996762
0.998731
1.0004
1.00203
1.00361
1.00524
1.00698
1.00833
1.00992
1.01148
1.01322
1.01501
1.01594
1.01732
1.01957
1.02174
1.02316
1.02451
1.02675
1.02934
1.03165
1.03337
1.03365
1.03368
1.03418
1.03511
1.03616
1.03722
1.03854
1.0401
1.04188
1.04358
1.04492
1.04574
1.04623
1.04662
1.04909
1.05821
1.07183
1.07259
1.06704
1.06609
1.0555
1.04911
1.04727
1.04471
1.0427
1.0414
1.0403
1.03924
1.03815
1.03699
1.03573
1.03436
1.03285
1.03118
1.02942
1.02768
1.02585
1.02377
1.02161
1.01911
1.01621
1.01336
1.01099
1.00904
1.00755
1.00683
1.00687
1.00575
1.00424
1.00264
1.0004
0.997581
0.995397
0.993763
0.992438
0.991182
0.990375
0.990346
0.989926
0.98881
0.987489
0.985956
0.984256
0.982785
0.981859
0.98062
0.979181
0.977551
0.975057
0.972426
0.970494
0.969072
0.967534
0.965516
0.963623
0.961921
0.960645
0.959503
0.958874
0.958149
0.956609
0.954585
0.952131
0.948612
0.94613
0.944044
0.942036
0.940538
0.93915
0.937483
0.936477
0.938295
0.937428
0.92137
0.914217
0.913404
0.915161
0.915608
0.915168
0.914317
0.916364
0.919722
0.921132
0.921707
0.923746
0.927295
0.930428
0.9318
0.935947
0.940495
0.942953
0.947277
0.95215
0.956739
0.961128
0.966067
0.971516
0.97677
0.982325
0.98794
0.993283
0.999465
1.00666
1.01194
1.0175
1.0252
1.03428
1.04011
1.04662
1.05421
1.06177
1.06913
1.07646
1.08363
1.09085
1.09713
1.10295
1.10776
1.11163
1.11441
1.11597
1.11642
1.11564
1.11387
1.11083
1.10657
1.10127
1.09468
1.08745
1.07899
1.07037
1.06147
1.0525
1.04312
1.03369
1.02549
1.0184
1.00879
0.998028
0.990977
0.984327
0.977996
0.969677
0.963797
0.95747
0.95091
0.945483
0.939735
0.934964
0.92866
0.923622
0.918307
0.914493
0.909626
0.904069
0.901861
0.897754
0.892579
0.889274
0.888828
0.88548
0.880034
0.878455
0.877249
0.872468
0.870545
0.871631
0.869704
0.865501
0.862998
0.862928
0.863387
0.861977
0.858895
0.856694
0.856453
0.85791
0.857298
0.856411
0.853531
0.852255
0.85299
0.854762
0.854719
0.853932
0.855278
0.910617
0.9754
0.98581
0.987364
0.987757
0.987361
0.986014
0.984255
0.983064
0.98261
0.982844
0.983541
0.984392
0.985484
0.986857
0.988623
0.99049
0.992416
0.994174
0.9958
0.997042
0.998304
0.999397
1.00069
1.00205
1.00325
1.00453
1.00583
1.00709
1.00836
1.00947
1.01038
1.01096
1.01243
1.01551
1.01772
1.01855
1.01918
1.02194
1.0258
1.02822
1.02919
1.02915
1.03027
1.03198
1.03373
1.03551
1.03739
1.03935
1.04149
1.04362
1.04528
1.0465
1.0475
1.04853
1.04996
1.0517
1.05265
1.05819
1.06861
1.06935
1.06792
1.06589
1.05646
1.05117
1.04722
1.04374
1.04171
1.04002
1.03844
1.03707
1.03586
1.03475
1.03355
1.03231
1.03094
1.02947
1.02805
1.02668
1.0251
1.02339
1.02144
1.01951
1.01755
1.0154
1.01283
1.01001
1.00734
1.00549
1.00423
1.00357
1.00315
1.00223
1.00076
0.999212
0.997284
0.994966
0.992951
0.991022
0.98939
0.98803
0.987158
0.98674
0.986427
0.985373
0.983628
0.981076
0.97918
0.978425
0.978137
0.977161
0.975707
0.974066
0.972263
0.970624
0.96907
0.967462
0.965087
0.962306
0.960163
0.958354
0.956627
0.955397
0.954735
0.953937
0.952206
0.950077
0.94737
0.944441
0.941759
0.939402
0.937385
0.935533
0.934344
0.936974
0.937027
0.922302
0.915515
0.912763
0.913122
0.914946
0.915888
0.91563
0.915706
0.918164
0.92103
0.922718
0.923605
0.926317
0.930366
0.932602
0.935177
0.940249
0.943704
0.947298
0.951676
0.95685
0.961529
0.966315
0.971685
0.977285
0.983113
0.988946
0.994827
1.00022
1.0071
1.01478
1.01996
1.02592
1.03267
1.04195
1.04865
1.05566
1.06307
1.07033
1.07742
1.08435
1.09112
1.097
1.10241
1.10685
1.11046
1.11303
1.11449
1.11492
1.11419
1.1125
1.10965
1.10564
1.10076
1.0947
1.08795
1.08009
1.07185
1.06331
1.05443
1.04528
1.0368
1.02884
1.01789
1.00857
1.00127
0.994463
0.987413
0.978353
0.971491
0.965347
0.958416
0.952027
0.946539
0.940006
0.934615
0.928703
0.923528
0.919206
0.913889
0.909086
0.905507
0.901771
0.896865
0.893056
0.890845
0.88848
0.883462
0.879189
0.87946
0.876257
0.871947
0.872291
0.871248
0.867267
0.863823
0.863648
0.864236
0.862726
0.859061
0.857216
0.857094
0.85806
0.857381
0.855808
0.853632
0.852157
0.853035
0.854349
0.854282
0.852894
0.851286
0.853827
0.910833
0.976194
0.98703
0.98712
0.986187
0.984118
0.982358
0.981698
0.981853
0.98251
0.983624
0.985014
0.986488
0.987891
0.989262
0.990471
0.991707
0.99291
0.994225
0.995307
0.996332
0.997125
0.997777
0.998792
0.999872
1.0008
1.00185
1.00253
1.00355
1.00469
1.00593
1.00709
1.00856
1.01067
1.01287
1.01438
1.01574
1.01765
1.02063
1.02335
1.02486
1.02576
1.02758
1.02996
1.03287
1.03574
1.03819
1.04027
1.04194
1.04333
1.04456
1.04559
1.04645
1.04738
1.04849
1.0506
1.05423
1.05811
1.06107
1.06622
1.06422
1.06872
1.06452
1.05583
1.05014
1.04541
1.04251
1.0407
1.03911
1.03759
1.03611
1.03471
1.03342
1.03207
1.03064
1.02915
1.02755
1.02599
1.02437
1.02283
1.02129
1.01968
1.01826
1.01684
1.01518
1.01335
1.0114
1.00918
1.00637
1.00395
1.00231
1.00096
1.00015
0.999595
0.998772
0.997529
0.996064
0.99449
0.992814
0.990592
0.988334
0.986566
0.985231
0.984078
0.983217
0.981986
0.980243
0.978358
0.976884
0.975638
0.975004
0.974668
0.973639
0.971978
0.970326
0.968763
0.967371
0.965858
0.963996
0.961831
0.959363
0.956913
0.954737
0.953044
0.951682
0.950825
0.949756
0.947735
0.945604
0.943243
0.940356
0.937716
0.935447
0.933567
0.935147
0.935325
0.921896
0.91611
0.914086
0.912447
0.91301
0.915365
0.916482
0.9166
0.916987
0.920188
0.922943
0.924571
0.926101
0.929806
0.933138
0.935624
0.939475
0.943844
0.947727
0.951867
0.956658
0.961932
0.967046
0.972418
0.97804
0.984083
0.989985
0.996558
1.00242
1.00786
1.01477
1.02346
1.02908
1.03471
1.04186
1.05036
1.05735
1.06435
1.07147
1.07835
1.085
1.09128
1.09678
1.10178
1.10585
1.10915
1.11148
1.11281
1.11321
1.11252
1.11094
1.10833
1.10467
1.10018
1.09457
1.08831
1.08104
1.07322
1.06495
1.05636
1.04794
1.03954
1.02893
1.0201
1.01242
1.00582
0.997426
0.987649
0.980982
0.974184
0.96709
0.960156
0.953805
0.947816
0.940373
0.935202
0.929474
0.924455
0.919602
0.913274
0.909997
0.905916
0.900725
0.897151
0.894186
0.890918
0.887451
0.882448
0.880553
0.879378
0.875485
0.873502
0.872316
0.869626
0.865885
0.864722
0.86529
0.863767
0.860363
0.858082
0.858067
0.858606
0.85774
0.855521
0.853669
0.852923
0.853463
0.854077
0.853753
0.852368
0.850764
0.850976
0.854616
0.911191
0.977442
0.985518
0.984132
0.982742
0.98169
0.98153
0.982391
0.983531
0.984488
0.985248
0.985988
0.986834
0.987773
0.988621
0.989511
0.990328
0.991009
0.991645
0.992174
0.992868
0.993686
0.994855
0.996084
0.997347
0.998696
1.00004
1.0015
1.00295
1.00438
1.00605
1.00775
1.00981
1.01187
1.01311
1.01439
1.01665
1.01947
1.02142
1.02265
1.0241
1.02627
1.02958
1.03292
1.0353
1.03706
1.03861
1.03987
1.04106
1.042
1.04267
1.04313
1.04398
1.04529
1.04706
1.04909
1.05214
1.05769
1.06407
1.06845
1.0654
1.06686
1.06113
1.05319
1.048
1.04365
1.04202
1.04081
1.03967
1.03852
1.03725
1.03581
1.03423
1.03268
1.03116
1.0296
1.02789
1.02609
1.02419
1.02233
1.02039
1.01859
1.01665
1.01494
1.01348
1.01216
1.01079
1.00926
1.00759
1.00555
1.00316
1.00093
0.99921
0.997946
0.99698
0.996225
0.995323
0.994105
0.992726
0.991344
0.989843
0.988058
0.985939
0.983996
0.982541
0.981566
0.980797
0.979523
0.977599
0.975472
0.973929
0.972718
0.971781
0.970525
0.968891
0.967184
0.965925
0.964961
0.963663
0.961956
0.960102
0.958287
0.956156
0.953548
0.951064
0.949214
0.948081
0.946828
0.945188
0.943258
0.941048
0.93877
0.936479
0.93445
0.93525
0.934242
0.920266
0.915391
0.914634
0.91355
0.912613
0.913663
0.915917
0.917461
0.917594
0.919121
0.922463
0.924856
0.927017
0.929249
0.932877
0.93658
0.939526
0.943376
0.94792
0.952483
0.957104
0.962271
0.967879
0.973604
0.979236
0.985211
0.991274
0.997228
1.00452
1.01052
1.01606
1.02252
1.03129
1.03856
1.04404
1.05113
1.05862
1.06555
1.07234
1.07893
1.08526
1.0911
1.09629
1.10093
1.10469
1.10768
1.10977
1.11098
1.11135
1.11071
1.10924
1.10686
1.10349
1.09932
1.09412
1.08824
1.08152
1.07412
1.06628
1.05823
1.04986
1.04059
1.03188
1.02486
1.01708
1.00689
0.998097
0.99076
0.984475
0.976504
0.968991
0.962392
0.955638
0.949015
0.941962
0.936929
0.930417
0.925143
0.91952
0.913786
0.910799
0.905373
0.900444
0.898112
0.89418
0.889972
0.886664
0.883483
0.881477
0.878363
0.875895
0.873978
0.871091
0.868557
0.86688
0.866301
0.864871
0.861853
0.859637
0.859345
0.859428
0.85823
0.855849
0.854124
0.853658
0.85428
0.854154
0.853374
0.851713
0.850864
0.850886
0.852156
0.854778
0.91004
0.97631
0.982482
0.981998
0.981681
0.98201
0.982816
0.983256
0.983577
0.983932
0.98435
0.984737
0.985136
0.9856
0.986224
0.98685
0.987637
0.988559
0.989592
0.990691
0.991891
0.993321
0.994867
0.996318
0.997786
0.999425
1.00096
1.00291
1.00473
1.00645
1.00828
1.01012
1.01197
1.0134
1.01469
1.0165
1.01894
1.02097
1.02247
1.02375
1.02597
1.02897
1.03128
1.03307
1.03462
1.03579
1.03673
1.03757
1.03843
1.03918
1.04
1.04121
1.04249
1.04407
1.04587
1.04768
1.04945
1.05389
1.06042
1.06848
1.07094
1.06156
1.05706
1.05046
1.0463
1.04449
1.04376
1.04223
1.04071
1.03939
1.03819
1.03694
1.03554
1.03405
1.03252
1.03095
1.02928
1.02755
1.02568
1.02366
1.0214
1.01913
1.01685
1.01462
1.01267
1.01089
1.00931
1.00805
1.0069
1.00548
1.00386
1.00219
1.00012
0.998067
0.996379
0.995042
0.993819
0.992682
0.991518
0.990526
0.98949
0.988232
0.986869
0.985295
0.983535
0.982182
0.981075
0.979911
0.978526
0.976812
0.974716
0.972707
0.97114
0.969743
0.968235
0.966529
0.964893
0.963436
0.962118
0.960793
0.959345
0.957932
0.956317
0.954496
0.952149
0.94946
0.947479
0.94568
0.943911
0.942128
0.940375
0.938414
0.93638
0.934815
0.93636
0.934828
0.920076
0.914173
0.913977
0.914181
0.913865
0.91358
0.914668
0.917128
0.918813
0.91951
0.921909
0.92445
0.927481
0.929767
0.93228
0.936724
0.94027
0.943597
0.948189
0.953051
0.958245
0.963333
0.968899
0.974824
0.980606
0.986548
0.992737
0.99879
1.0049
1.01248
1.01903
1.02454
1.03104
1.03919
1.04685
1.05278
1.05967
1.06655
1.07312
1.07938
1.08532
1.09076
1.0956
1.09986
1.1033
1.10602
1.1079
1.10898
1.10934
1.10872
1.10735
1.10516
1.10208
1.09824
1.09348
1.08799
1.08177
1.07485
1.0675
1.05969
1.05133
1.04304
1.03606
1.02702
1.01717
1.00875
1.00174
0.994727
0.986489
0.978224
0.971616
0.964669
0.957358
0.951049
0.944244
0.938543
0.931633
0.926017
0.920285
0.915141
0.910868
0.90496
0.901488
0.898398
0.893465
0.889394
0.887182
0.884696
0.880921
0.878094
0.87657
0.873458
0.870191
0.8693
0.868086
0.865834
0.863213
0.861503
0.860812
0.860262
0.858851
0.856661
0.855197
0.854766
0.854919
0.854446
0.853287
0.851783
0.851129
0.851378
0.852045
0.852001
0.853687
0.907216
0.973887
0.981401
0.98214
0.982404
0.982426
0.982343
0.982119
0.981798
0.981865
0.982176
0.982691
0.983399
0.984257
0.985174
0.986276
0.987479
0.988845
0.990309
0.991974
0.993542
0.995096
0.996488
0.997834
0.999258
1.00074
1.0022
1.00362
1.00509
1.0066
1.00802
1.00967
1.01114
1.01252
1.01436
1.01637
1.01836
1.01986
1.02178
1.02421
1.02667
1.02863
1.0301
1.03119
1.03241
1.03373
1.03507
1.03623
1.03745
1.03877
1.0403
1.04201
1.0437
1.04525
1.04672
1.04805
1.04864
1.0505
1.05566
1.0623
1.06748
1.05696
1.05408
1.0504
1.04787
1.04719
1.0444
1.04177
1.03998
1.03848
1.0372
1.03594
1.03459
1.03321
1.03176
1.03025
1.02867
1.02707
1.02537
1.02358
1.02171
1.01972
1.01771
1.01561
1.01336
1.01115
1.00911
1.00736
1.00577
1.00444
1.00319
1.00191
1.00045
0.998873
0.997154
0.995396
0.993767
0.992304
0.990904
0.989556
0.988345
0.987239
0.986183
0.985052
0.983656
0.982147
0.980495
0.979009
0.977828
0.976606
0.975173
0.97361
0.971885
0.970133
0.968622
0.967026
0.96531
0.963492
0.961714
0.96007
0.958383
0.956809
0.955368
0.953963
0.952263
0.950257
0.948063
0.945825
0.943717
0.941647
0.93956
0.937554
0.935561
0.934198
0.936202
0.935408
0.920926
0.914516
0.913354
0.913679
0.91435
0.91477
0.914927
0.916386
0.918752
0.920545
0.922256
0.924234
0.927347
0.930573
0.932858
0.936441
0.940728
0.944663
0.949064
0.953887
0.959351
0.964643
0.970118
0.976019
0.981963
0.988004
0.994104
1.00075
1.00674
1.01302
1.02058
1.02798
1.03361
1.03978
1.04714
1.05433
1.06081
1.06725
1.07358
1.07954
1.08511
1.09019
1.09469
1.09858
1.10173
1.1042
1.1059
1.10687
1.1072
1.10661
1.10533
1.10331
1.10049
1.09694
1.09257
1.08747
1.08168
1.07525
1.06828
1.06077
1.05311
1.04548
1.03675
1.02781
1.02017
1.01305
1.00537
0.996121
0.988277
0.981022
0.974278
0.966502
0.959456
0.953252
0.946117
0.939976
0.933261
0.927544
0.922112
0.916056
0.911201
0.906264
0.90255
0.898299
0.893505
0.890047
0.887997
0.884514
0.880279
0.878841
0.876658
0.872952
0.870878
0.870196
0.867764
0.864671
0.863165
0.862623
0.861438
0.859535
0.857709
0.856544
0.856022
0.855573
0.854793
0.853563
0.852369
0.851734
0.851939
0.852037
0.851726
0.850875
0.852459
0.906655
0.974315
0.982276
0.982131
0.981843
0.981257
0.980682
0.980368
0.98053
0.980953
0.981671
0.982516
0.983551
0.984719
0.985927
0.987254
0.988525
0.989827
0.991104
0.992349
0.993578
0.994827
0.995996
0.997265
0.998587
0.999872
1.00125
1.00247
1.00378
1.0052
1.00659
1.00801
1.00943
1.01117
1.01325
1.01509
1.01668
1.01835
1.02082
1.02333
1.0254
1.02694
1.02841
1.03007
1.03185
1.0337
1.03552
1.0373
1.03902
1.04073
1.04224
1.04354
1.04482
1.0462
1.04785
1.05018
1.05219
1.05186
1.05344
1.05696
1.05975
1.05853
1.05657
1.05201
1.04897
1.04576
1.043
1.04087
1.03905
1.03748
1.03617
1.03494
1.03364
1.03227
1.03085
1.02937
1.02778
1.02619
1.02453
1.02282
1.021
1.01913
1.01722
1.0154
1.01354
1.01167
1.00973
1.00771
1.00577
1.00408
1.00256
1.00109
0.999766
0.998466
0.997158
0.995784
0.994325
0.992807
0.991255
0.989652
0.988131
0.986738
0.985424
0.984187
0.982989
0.981644
0.980123
0.978518
0.977067
0.975715
0.974498
0.973322
0.971913
0.970332
0.96874
0.967136
0.965617
0.964051
0.962234
0.960361
0.958478
0.956671
0.954969
0.953244
0.951558
0.949947
0.948226
0.946285
0.944215
0.942002
0.939747
0.937597
0.935517
0.933877
0.935561
0.934941
0.921265
0.915309
0.913835
0.913391
0.913914
0.915128
0.915904
0.916716
0.918236
0.920601
0.922806
0.924719
0.927325
0.930694
0.933979
0.937068
0.941031
0.945608
0.950115
0.95499
0.960325
0.965856
0.971389
0.977262
0.983271
0.989515
0.995635
1.0021
1.00904
1.01517
1.02135
1.02856
1.03613
1.04235
1.04833
1.05514
1.06173
1.06792
1.0739
1.07947
1.08471
1.08941
1.09358
1.09713
1.10001
1.10224
1.10378
1.10465
1.10495
1.10438
1.1032
1.10133
1.09873
1.09547
1.09146
1.08675
1.08139
1.07539
1.06886
1.06185
1.05458
1.04666
1.03843
1.03126
1.02395
1.0153
1.00652
0.998347
0.991424
0.983737
0.975998
0.968554
0.961736
0.955138
0.947634
0.941796
0.934988
0.929266
0.92355
0.91703
0.912677
0.907881
0.902722
0.898722
0.894573
0.890851
0.88795
0.884124
0.880832
0.879349
0.876479
0.873427
0.871701
0.870011
0.867198
0.864961
0.864182
0.863022
0.860942
0.858997
0.857995
0.857426
0.856493
0.855216
0.854085
0.853278
0.85266
0.852473
0.852138
0.851609
0.850952
0.850596
0.852439
0.906704
0.975958
0.982303
0.981117
0.980526
0.980052
0.979915
0.98014
0.980694
0.981359
0.982128
0.982966
0.983863
0.984826
0.985849
0.986886
0.987997
0.989093
0.990199
0.991299
0.992432
0.993575
0.994819
0.996165
0.99751
0.998853
1.00025
1.00168
1.00312
1.00458
1.00614
1.00768
1.00936
1.01117
1.01293
1.01461
1.01644
1.0185
1.02073
1.02276
1.02462
1.0264
1.0285
1.03077
1.03294
1.0348
1.03639
1.03775
1.03906
1.04025
1.04142
1.04254
1.04375
1.04517
1.04691
1.049
1.05172
1.05474
1.05709
1.05772
1.05586
1.06102
1.05563
1.04942
1.0466
1.04363
1.04188
1.04066
1.0391
1.03768
1.03638
1.03505
1.03364
1.03223
1.03078
1.02928
1.02767
1.02602
1.02429
1.02248
1.02057
1.01864
1.01671
1.01486
1.01306
1.0113
1.00953
1.00779
1.00608
1.00437
1.00265
1.00098
0.999411
0.998009
0.996686
0.995396
0.994066
0.992685
0.991286
0.989879
0.988448
0.986986
0.985499
0.984055
0.982699
0.981422
0.980162
0.97872
0.977153
0.975575
0.97411
0.97275
0.97143
0.96995
0.968364
0.966729
0.965218
0.963802
0.962216
0.960506
0.95876
0.957025
0.955232
0.953326
0.951366
0.949497
0.947842
0.946075
0.944195
0.942155
0.940065
0.937947
0.935858
0.934181
0.935662
0.934574
0.920909
0.91531
0.914346
0.913873
0.913912
0.914779
0.916065
0.917388
0.918515
0.920338
0.922843
0.925236
0.927919
0.930798
0.93444
0.938179
0.941967
0.946441
0.951126
0.956122
0.961415
0.966901
0.972585
0.978557
0.984585
0.990944
0.997331
1.00359
1.01021
1.01721
1.02364
1.02982
1.03659
1.04358
1.04998
1.0561
1.06231
1.0683
1.07398
1.07921
1.08411
1.08845
1.09229
1.09553
1.09816
1.10018
1.10157
1.10234
1.10261
1.10207
1.10096
1.09924
1.09686
1.09385
1.09017
1.08583
1.08086
1.07526
1.0692
1.06258
1.05551
1.04814
1.04089
1.03337
1.02511
1.0169
1.00931
1.0017
0.994073
0.985578
0.978183
0.971029
0.963862
0.956822
0.94955
0.943684
0.936655
0.93079
0.924831
0.918578
0.914318
0.908629
0.903339
0.899954
0.895456
0.891135
0.888062
0.884755
0.881718
0.87931
0.876665
0.874053
0.871571
0.869741
0.867566
0.86578
0.86437
0.862752
0.860828
0.85948
0.858642
0.857573
0.856177
0.854872
0.854139
0.853661
0.853081
0.85243
0.851733
0.851201
0.851002
0.850858
0.852484
0.906432
0.976246
0.981461
0.980423
0.98014
0.97993
0.980051
0.980284
0.980607
0.981088
0.981688
0.982414
0.983211
0.984094
0.985061
0.986077
0.987171
0.988299
0.989455
0.990669
0.991923
0.993233
0.994584
0.995965
0.997348
0.998793
1.00024
1.00174
1.00328
1.0048
1.00642
1.00807
1.00977
1.01147
1.01311
1.01487
1.01689
1.0189
1.0209
1.02277
1.02479
1.02694
1.02906
1.03093
1.03267
1.03422
1.03564
1.03688
1.03808
1.03921
1.04032
1.0414
1.04262
1.04405
1.04577
1.04739
1.04918
1.05234
1.05583
1.06048
1.05817
1.05594
1.05111
1.04614
1.04415
1.0429
1.04253
1.04092
1.03913
1.03772
1.03648
1.03519
1.03378
1.03235
1.0309
1.0294
1.0278
1.02616
1.02443
1.02261
1.02066
1.01868
1.01665
1.01468
1.01276
1.01091
1.00913
1.00744
1.00584
1.00427
1.00269
1.0011
0.999504
0.997964
0.996478
0.995066
0.993691
0.99233
0.990962
0.989617
0.988275
0.98693
0.985562
0.984169
0.982764
0.981406
0.98008
0.978697
0.977245
0.975758
0.974219
0.972709
0.971238
0.969717
0.968151
0.966528
0.964973
0.963463
0.961864
0.960216
0.958542
0.956916
0.955261
0.953484
0.951551
0.949546
0.947696
0.945817
0.943909
0.941917
0.939914
0.93789
0.935873
0.934323
0.935941
0.934693
0.920993
0.915109
0.914299
0.914195
0.914345
0.914917
0.915922
0.917483
0.919127
0.920755
0.923044
0.925606
0.928602
0.931589
0.934943
0.938922
0.943056
0.947436
0.952098
0.957184
0.962592
0.968074
0.973814
0.979894
0.985956
0.992285
0.998825
1.00538
1.01175
1.01839
1.02531
1.03189
1.0381
1.0444
1.05083
1.05701
1.06288
1.06852
1.07384
1.07877
1.08331
1.08732
1.09084
1.0938
1.09619
1.09802
1.09927
1.09996
1.1002
1.09967
1.09865
1.09705
1.09487
1.0921
1.08872
1.08472
1.08014
1.07494
1.06927
1.06305
1.05643
1.0496
1.04228
1.03465
1.0271
1.01967
1.01216
1.004
0.99608
0.988101
0.980931
0.973319
0.965798
0.9589
0.951645
0.945449
0.93833
0.932322
0.926348
0.920113
0.915473
0.909709
0.904754
0.901034
0.896262
0.891827
0.888947
0.885787
0.881957
0.879474
0.877263
0.874134
0.871494
0.870047
0.868107
0.865809
0.86412
0.86271
0.861213
0.859808
0.858567
0.85733
0.856063
0.855064
0.854418
0.853723
0.852898
0.852092
0.85158
0.85132
0.851192
0.850755
0.852153
0.90539
0.97591
0.981348
0.980404
0.980117
0.979794
0.979693
0.979707
0.979845
0.980278
0.980898
0.98166
0.982532
0.983508
0.984558
0.985688
0.986878
0.988108
0.989369
0.990662
0.991956
0.993271
0.994586
0.995942
0.997341
0.998778
1.00021
1.00165
1.00312
1.00462
1.00618
1.00777
1.00938
1.01103
1.01281
1.01468
1.01658
1.01844
1.0205
1.02265
1.0248
1.02676
1.02857
1.03024
1.03186
1.03338
1.03483
1.03618
1.0375
1.03882
1.04013
1.04144
1.04281
1.04422
1.04575
1.04721
1.0478
1.0494
1.05246
1.0569
1.05967
1.05142
1.04782
1.04519
1.04397
1.04374
1.04242
1.04027
1.03847
1.03703
1.03582
1.03458
1.03321
1.03183
1.03042
1.02896
1.02739
1.0258
1.02413
1.02237
1.02049
1.01854
1.01658
1.01465
1.01273
1.01085
1.00898
1.0072
1.0055
1.0039
1.00235
1.00085
0.999355
0.997889
0.996428
0.994986
0.993552
0.992133
0.990715
0.989304
0.987916
0.986564
0.985231
0.983891
0.98253
0.981137
0.979729
0.978351
0.976951
0.975533
0.974095
0.972663
0.971196
0.969641
0.968074
0.966489
0.964949
0.963389
0.961715
0.960004
0.958297
0.956648
0.955021
0.953288
0.951465
0.949578
0.947734
0.945809
0.943837
0.941788
0.939758
0.937732
0.935731
0.934206
0.935879
0.934744
0.921247
0.915298
0.914312
0.914155
0.91457
0.915388
0.916249
0.917618
0.919464
0.921472
0.923751
0.926264
0.929223
0.932516
0.935947
0.939684
0.943975
0.948493
0.953124
0.958281
0.963738
0.969349
0.975159
0.981324
0.987476
0.993781
1.00025
1.0069
1.01352
1.01995
1.0265
1.03309
1.03952
1.04565
1.05162
1.05753
1.06321
1.06853
1.07353
1.07814
1.08234
1.08603
1.08926
1.09195
1.09412
1.09577
1.0969
1.09752
1.09771
1.0972
1.09625
1.09478
1.09278
1.09023
1.08713
1.08346
1.07923
1.07442
1.06912
1.06334
1.0571
1.05052
1.04351
1.03647
1.02922
1.0217
1.01401
1.00605
0.998596
0.990825
0.983336
0.975442
0.968056
0.961137
0.953627
0.947242
0.940075
0.933952
0.927875
0.921377
0.916687
0.911286
0.906037
0.902054
0.897322
0.893016
0.890027
0.886486
0.882463
0.880168
0.877759
0.874448
0.872022
0.870516
0.868199
0.865763
0.864216
0.863067
0.861381
0.859711
0.858417
0.857344
0.856261
0.855172
0.854317
0.853541
0.852726
0.852074
0.851664
0.851334
0.851041
0.850448
0.851713
0.90486
0.976215
0.981517
0.980194
0.979722
0.979205
0.978959
0.978977
0.979233
0.97971
0.980372
0.981174
0.982072
0.983058
0.984115
0.985245
0.986423