/*--------------------------------*- C++ -*----------------------------------*\
| =========                 |                                                 |
| \\      /  F ield         | OpenFOAM: The Open Source CFD Toolbox           |
|  \\    /   O peration     | Version:  4.0                                   |
|   \\  /    A nd           | Web:      www.OpenFOAM.org                      |
|    \\/     M anipulation  |                                                 |
\*---------------------------------------------------------------------------*/
FoamFile
{
    version     2.0;
    format      ascii;
    class       volVectorField;
    location    "50";
    object      U;
}
// * * * * * * * * * * * * * * * * * * * * * * * * * * * * * * * * * * * * * //

dimensions      [0 1 -1 0 0 0 0];

internalField   nonuniform List<vector> 
24651
(
(0.0315576 0.0331747 0)
(0.122572 0.0850966 0)
(0.320543 0.123521 0)
(0.445209 0.0669691 0)
(0.423244 0.0628758 0)
(0.407963 0.0567714 0)
(0.401992 0.0553455 0)
(0.401706 0.0558955 0)
(0.404625 0.0560969 0)
(0.410828 0.0568337 0)
(0.418804 0.0586118 0)
(0.425757 0.0599892 0)
(0.433168 0.0595616 0)
(0.441082 0.0601675 0)
(0.448918 0.0606408 0)
(0.456682 0.0618894 0)
(0.464464 0.0631597 0)
(0.472863 0.0632313 0)
(0.48123 0.0635731 0)
(0.489751 0.06483 0)
(0.498526 0.0658907 0)
(0.507132 0.0658519 0)
(0.514681 0.0668303 0)
(0.521311 0.0686127 0)
(0.526882 0.0706165 0)
(0.532462 0.0720563 0)
(0.539155 0.0737575 0)
(0.545004 0.074367 0)
(0.549257 0.0714227 0)
(0.552454 0.0694701 0)
(0.555039 0.0671295 0)
(0.558519 0.0652542 0)
(0.562206 0.0647189 0)
(0.566693 0.0672 0)
(0.570694 0.0673922 0)
(0.572125 0.0681661 0)
(0.573045 0.068951 0)
(0.57447 0.0685228 0)
(0.576531 0.0678799 0)
(0.580887 0.0665715 0)
(0.586795 0.0647132 0)
(0.592958 0.0629833 0)
(0.597744 0.0600066 0)
(0.59986 0.0571476 0)
(0.600438 0.0545831 0)
(0.600813 0.0542897 0)
(0.604818 0.0551088 0)
(0.609219 0.0565027 0)
(0.613152 0.0551632 0)
(0.61885 0.0539189 0)
(0.627187 0.0546332 0)
(0.633379 0.0530555 0)
(0.635872 0.052383 0)
(0.639391 0.0504914 0)
(0.641251 0.0494521 0)
(0.646683 0.0477341 0)
(0.650939 0.0496857 0)
(0.655655 0.0516491 0)
(0.667871 0.0495697 0)
(0.673833 0.0479103 0)
(0.675188 0.0478116 0)
(0.681046 0.0444255 0)
(0.691369 0.0386409 0)
(0.697889 0.0372135 0)
(0.701473 0.0361261 0)
(0.719477 0.0342644 0)
(0.733654 0.0295028 0)
(0.742409 0.0328852 0)
(0.739873 0.0310791 0)
(0.743636 0.028593 0)
(0.750065 0.0210288 0)
(0.763533 0.0134403 0)
(0.776107 0.0126003 0)
(0.770471 0.00737559 0)
(0.780375 -0.00476323 0)
(0.826513 0.00278072 0)
(0.847514 -0.0131082 0)
(0.85451 -0.01231 0)
(0.872489 -0.0244384 0)
(0.869074 -0.027092 0)
(0.880384 -0.049253 0)
(0.874184 -0.0465952 0)
(0.879029 -0.0671277 0)
(0.874741 -0.0632308 0)
(0.879442 -0.0893206 0)
(0.902058 -0.103452 0)
(0.883303 -0.0921809 0)
(0.876284 -0.106652 0)
(0.898031 -0.139388 0)
(0.878883 -0.128056 0)
(0.866311 -0.136426 0)
(0.8908 -0.182041 0)
(0.875427 -0.179923 0)
(0.849617 -0.186573 0)
(0.850047 -0.215436 0)
(0.847387 -0.23048 0)
(0.820081 -0.23638 0)
(0.805299 -0.255259 0)
(0.788754 -0.265522 0)
(0.770823 -0.275719 0)
(0.751615 -0.287934 0)
(0.729331 -0.302274 0)
(0.705545 -0.315912 0)
(0.682107 -0.328294 0)
(0.656433 -0.342359 0)
(0.628963 -0.353805 0)
(0.601437 -0.362747 0)
(0.573606 -0.373994 0)
(0.542299 -0.383975 0)
(0.509577 -0.388668 0)
(0.474595 -0.393853 0)
(0.437715 -0.395397 0)
(0.398914 -0.393154 0)
(0.358549 -0.386491 0)
(0.317672 -0.374207 0)
(0.278202 -0.353986 0)
(0.24951 -0.325221 0)
(0.208784 -0.302202 0)
(0.165031 -0.268951 0)
(0.124195 -0.227314 0)
(0.0888343 -0.177394 0)
(0.0602572 -0.120144 0)
(0.0287177 -0.0601978 0)
(0.017575 0.00845199 0)
(0.0209443 0.0775319 0)
(0.0414633 0.139717 0)
(0.061617 0.200831 0)
(0.0911326 0.257361 0)
(0.129099 0.307789 0)
(0.173032 0.350564 0)
(0.216551 0.38199 0)
(0.247627 0.417141 0)
(0.290989 0.444397 0)
(0.337244 0.462582 0)
(0.383813 0.473638 0)
(0.429118 0.478738 0)
(0.472187 0.478926 0)
(0.512309 0.475053 0)
(0.54922 0.471863 0)
(0.58856 0.460685 0)
(0.622496 0.444733 0)
(0.651322 0.43535 0)
(0.683047 0.423213 0)
(0.713822 0.406058 0)
(0.739755 0.38952 0)
(0.763993 0.37499 0)
(0.787358 0.364966 0)
(0.810274 0.343366 0)
(0.831021 0.338198 0)
(0.847674 0.32032 0)
(0.863818 0.29199 0)
(0.895685 0.291997 0)
(0.893838 0.255935 0)
(0.917348 0.250159 0)
(0.929203 0.246382 0)
(0.911342 0.193877 0)
(0.930166 0.186116 0)
(0.964124 0.195997 0)
(0.929036 0.15616 0)
(0.929711 0.134577 0)
(0.959222 0.142182 0)
(0.957421 0.147404 0)
(0.929497 0.0972939 0)
(0.937101 0.0759884 0)
(0.962289 0.0796285 0)
(0.948635 0.0925604 0)
(0.926021 0.0576635 0)
(0.933117 0.0453631 0)
(0.944497 0.0535006 0)
(0.927371 0.0272787 0)
(0.929707 0.0216542 0)
(0.929801 0.0120469 0)
(0.924739 0.00450997 0)
(0.92984 0.003808 0)
(0.923978 -0.000238942 0)
(0.921263 -0.0140348 0)
(0.913746 -0.0243431 0)
(0.922179 -0.0185025 0)
(0.915459 -0.0231989 0)
(0.920899 -0.0271805 0)
(0.912318 -0.0329452 0)
(0.89862 -0.0458336 0)
(0.901251 -0.0429817 0)
(0.895744 -0.0456138 0)
(0.898635 -0.0439839 0)
(0.883445 -0.0524498 0)
(0.891546 -0.059596 0)
(0.854918 -0.0555162 0)
(0.520095 -0.0383159 0)
(0.351632 -0.0264662 0)
(0.366153 -0.026922 0)
(0.382983 -0.0258482 0)
(0.398713 -0.0263409 0)
(0.412674 -0.0273594 0)
(0.424876 -0.0312062 0)
(0.434455 -0.0353328 0)
(0.442671 -0.0375141 0)
(0.450653 -0.0389719 0)
(0.458098 -0.0402951 0)
(0.464379 -0.0416206 0)
(0.470186 -0.0420487 0)
(0.475673 -0.0413332 0)
(0.480537 -0.0399808 0)
(0.484892 -0.0398817 0)
(0.489124 -0.0406283 0)
(0.492891 -0.0410794 0)
(0.496232 -0.0424855 0)
(0.498821 -0.0443519 0)
(0.500583 -0.046097 0)
(0.502144 -0.0475319 0)
(0.502954 -0.049786 0)
(0.504158 -0.0518813 0)
(0.504541 -0.0534336 0)
(0.504645 -0.0554913 0)
(0.503925 -0.0576589 0)
(0.502978 -0.0595419 0)
(0.501806 -0.060846 0)
(0.49976 -0.0629275 0)
(0.499149 -0.0634674 0)
(0.49575 -0.0659979 0)
(0.492203 -0.0654315 0)
(0.488741 -0.0639017 0)
(0.486481 -0.0637542 0)
(0.482825 -0.0660778 0)
(0.478033 -0.0669316 0)
(0.470115 -0.0652772 0)
(0.464163 -0.0627631 0)
(0.462353 -0.0623436 0)
(0.458237 -0.06586 0)
(0.452244 -0.0669938 0)
(0.446175 -0.0667573 0)
(0.440747 -0.0665449 0)
(0.434762 -0.0659038 0)
(0.428212 -0.0632137 0)
(0.420882 -0.0605068 0)
(0.41319 -0.0585618 0)
(0.405147 -0.056513 0)
(0.397108 -0.0549775 0)
(0.388843 -0.0523878 0)
(0.378925 -0.0512263 0)
(0.372018 -0.0511317 0)
(0.369734 -0.0514601 0)
(0.371088 -0.0519658 0)
(0.378805 -0.0546855 0)
(0.395926 -0.0598533 0)
(0.416268 -0.0623606 0)
(0.304863 -0.118572 0)
(0.118706 -0.0870988 0)
(0.0330774 -0.0398208 0)
(0.127884 0.068561 0)
(0.265447 0.152925 0)
(0.469241 0.164795 0)
(0.557492 0.0945516 0)
(0.563016 0.0883138 0)
(0.565856 0.0844311 0)
(0.566527 0.0809156 0)
(0.569166 0.0795744 0)
(0.573823 0.0799992 0)
(0.579461 0.0806955 0)
(0.58538 0.0822114 0)
(0.591702 0.0834193 0)
(0.598206 0.0839206 0)
(0.604892 0.0840679 0)
(0.611832 0.0842655 0)
(0.619153 0.0844113 0)
(0.626501 0.0845164 0)
(0.633935 0.0843011 0)
(0.641859 0.0832592 0)
(0.65034 0.0823247 0)
(0.658878 0.0810356 0)
(0.667121 0.0800054 0)
(0.674901 0.0791653 0)
(0.681819 0.0790046 0)
(0.688431 0.0799737 0)
(0.695798 0.0815694 0)
(0.70337 0.0837761 0)
(0.708822 0.0858846 0)
(0.71298 0.0866752 0)
(0.71727 0.0846357 0)
(0.721259 0.0817086 0)
(0.725822 0.0779925 0)
(0.731217 0.0748056 0)
(0.736462 0.0733503 0)
(0.74096 0.073707 0)
(0.745497 0.0750068 0)
(0.75014 0.0758271 0)
(0.754462 0.0767887 0)
(0.758384 0.0778653 0)
(0.761971 0.0782052 0)
(0.766745 0.0771221 0)
(0.771529 0.0751017 0)
(0.775578 0.0728349 0)
(0.779363 0.0700936 0)
(0.783069 0.0696196 0)
(0.787333 0.0715349 0)
(0.791373 0.0721903 0)
(0.794985 0.0691206 0)
(0.798718 0.0658082 0)
(0.804349 0.0613316 0)
(0.81128 0.0567753 0)
(0.816761 0.0553022 0)
(0.821102 0.0550244 0)
(0.825729 0.0538432 0)
(0.829599 0.0517764 0)
(0.834769 0.0501317 0)
(0.840066 0.049664 0)
(0.84704 0.0496549 0)
(0.854889 0.0503328 0)
(0.85999 0.0504294 0)
(0.863261 0.0488398 0)
(0.868642 0.0462508 0)
(0.874979 0.042733 0)
(0.879592 0.0372317 0)
(0.88588 0.0298607 0)
(0.895824 0.0255301 0)
(0.904538 0.0252682 0)
(0.912221 0.0240815 0)
(0.916946 0.0225269 0)
(0.922406 0.0208166 0)
(0.92876 0.018199 0)
(0.936827 0.0144744 0)
(0.942003 0.00926487 0)
(0.936949 0.00349416 0)
(0.940698 -0.00440233 0)
(0.981154 -0.0153766 0)
(0.998845 -0.0190024 0)
(1.0055 -0.0212911 0)
(1.00763 -0.0233938 0)
(1.0042 -0.0324996 0)
(1.00503 -0.0434431 0)
(1.00318 -0.0528871 0)
(1.00334 -0.0553522 0)
(0.997987 -0.0593989 0)
(0.990416 -0.0715951 0)
(0.989333 -0.0835435 0)
(0.985726 -0.0918448 0)
(0.977248 -0.0984615 0)
(0.966824 -0.110764 0)
(0.961924 -0.124304 0)
(0.952366 -0.133765 0)
(0.937375 -0.145872 0)
(0.928021 -0.158508 0)
(0.915428 -0.170953 0)
(0.897199 -0.183636 0)
(0.883126 -0.198077 0)
(0.86479 -0.211136 0)
(0.847103 -0.224766 0)
(0.82929 -0.239441 0)
(0.810386 -0.253993 0)
(0.790174 -0.268108 0)
(0.768943 -0.281389 0)
(0.745838 -0.294164 0)
(0.722451 -0.305621 0)
(0.696118 -0.317585 0)
(0.670126 -0.330931 0)
(0.64391 -0.338784 0)
(0.61314 -0.347148 0)
(0.582368 -0.355848 0)
(0.550212 -0.364249 0)
(0.51582 -0.367952 0)
(0.478404 -0.369627 0)
(0.438525 -0.36835 0)
(0.396625 -0.363242 0)
(0.352555 -0.352959 0)
(0.305837 -0.337021 0)
(0.257685 -0.316001 0)
(0.212575 -0.2898 0)
(0.169933 -0.256028 0)
(0.131782 -0.214449 0)
(0.099471 -0.166346 0)
(0.0748975 -0.11331 0)
(0.0580839 -0.0528756 0)
(0.0508875 0.0102352 0)
(0.0490706 0.0736735 0)
(0.0570505 0.134047 0)
(0.0746476 0.190252 0)
(0.10158 0.244114 0)
(0.136723 0.293622 0)
(0.180264 0.335946 0)
(0.228112 0.371842 0)
(0.280988 0.400963 0)
(0.333721 0.423727 0)
(0.385053 0.439353 0)
(0.434734 0.448221 0)
(0.482313 0.451589 0)
(0.527187 0.451082 0)
(0.567741 0.447575 0)
(0.606417 0.438733 0)
(0.643143 0.428444 0)
(0.680714 0.416677 0)
(0.712987 0.408298 0)
(0.740169 0.395164 0)
(0.770885 0.378792 0)
(0.797437 0.363975 0)
(0.822684 0.349173 0)
(0.844786 0.33304 0)
(0.866562 0.316535 0)
(0.889523 0.300803 0)
(0.90562 0.284208 0)
(0.931275 0.267881 0)
(0.947137 0.251108 0)
(0.966531 0.235829 0)
(0.98201 0.22133 0)
(0.993329 0.203585 0)
(1.01385 0.190473 0)
(1.02427 0.176948 0)
(1.03179 0.159804 0)
(1.04785 0.146897 0)
(1.05658 0.137007 0)
(1.0625 0.123673 0)
(1.06853 0.108357 0)
(1.07879 0.094483 0)
(1.08509 0.0903885 0)
(1.09077 0.0830632 0)
(1.09625 0.0652901 0)
(1.10008 0.0623298 0)
(1.1006 0.0588241 0)
(1.10475 0.0438475 0)
(1.10931 0.0317474 0)
(1.11366 0.0276226 0)
(1.11365 0.027822 0)
(1.11429 0.0232171 0)
(1.11513 0.0098952 0)
(1.11947 -0.00223415 0)
(1.12164 -0.00407429 0)
(1.12047 -0.0035089 0)
(1.12285 -0.0062801 0)
(1.11972 -0.0144835 0)
(1.12338 -0.0244563 0)
(1.12453 -0.0313282 0)
(1.12321 -0.0330478 0)
(1.12235 -0.0322059 0)
(1.12007 -0.0328878 0)
(1.11964 -0.0394783 0)
(1.1163 -0.048884 0)
(1.11867 -0.0538265 0)
(1.10666 -0.0494467 0)
(0.86001 -0.0276806 0)
(0.65452 -0.0374226 0)
(0.646417 -0.0364231 0)
(0.657045 -0.0368658 0)
(0.669054 -0.0394542 0)
(0.679841 -0.0451016 0)
(0.689137 -0.050698 0)
(0.69649 -0.0546635 0)
(0.703044 -0.0567676 0)
(0.708452 -0.0577657 0)
(0.712196 -0.0574074 0)
(0.71462 -0.0567826 0)
(0.715709 -0.0567012 0)
(0.716682 -0.0566633 0)
(0.717424 -0.0566037 0)
(0.717692 -0.0569041 0)
(0.718071 -0.0579488 0)
(0.71774 -0.05984 0)
(0.716668 -0.0625125 0)
(0.715452 -0.0652689 0)
(0.71391 -0.0690533 0)
(0.711921 -0.0721489 0)
(0.710583 -0.0741149 0)
(0.708873 -0.0755689 0)
(0.706478 -0.0769554 0)
(0.704039 -0.0782726 0)
(0.700951 -0.0797249 0)
(0.69763 -0.08106 0)
(0.694096 -0.0818917 0)
(0.690285 -0.0830226 0)
(0.68637 -0.0835839 0)
(0.681621 -0.08346 0)
(0.677221 -0.0832524 0)
(0.672389 -0.0830534 0)
(0.666637 -0.084271 0)
(0.660494 -0.0854323 0)
(0.654269 -0.0849849 0)
(0.64769 -0.0832535 0)
(0.639969 -0.0833543 0)
(0.633165 -0.0850628 0)
(0.626162 -0.0858721 0)
(0.618992 -0.0852659 0)
(0.612602 -0.0823101 0)
(0.605275 -0.0786582 0)
(0.597173 -0.0754516 0)
(0.589741 -0.0737633 0)
(0.583093 -0.072329 0)
(0.576564 -0.0709578 0)
(0.57 -0.070163 0)
(0.563434 -0.0695779 0)
(0.556203 -0.0703822 0)
(0.549274 -0.0711505 0)
(0.542919 -0.0733611 0)
(0.538344 -0.0736578 0)
(0.53632 -0.0749893 0)
(0.536466 -0.078534 0)
(0.535757 -0.0825338 0)
(0.529441 -0.0915359 0)
(0.442919 -0.159243 0)
(0.250683 -0.151411 0)
(0.123609 -0.0677106 0)
(0.222791 0.0651717 0)
(0.356863 0.133566 0)
(0.515836 0.133018 0)
(0.584053 0.106787 0)
(0.597712 0.100709 0)
(0.604552 0.0961268 0)
(0.608034 0.0905246 0)
(0.612208 0.0873733 0)
(0.617029 0.0856011 0)
(0.622044 0.0852251 0)
(0.627148 0.0865144 0)
(0.632514 0.0882088 0)
(0.63815 0.0897201 0)
(0.643929 0.090818 0)
(0.649985 0.0916401 0)
(0.656428 0.0923809 0)
(0.663038 0.0932273 0)
(0.669776 0.0939358 0)
(0.676764 0.0943799 0)
(0.684066 0.0944894 0)
(0.691089 0.0942508 0)
(0.697541 0.0930867 0)
(0.703981 0.0913355 0)
(0.710977 0.0880073 0)
(0.718704 0.0841214 0)
(0.726496 0.0815313 0)
(0.732784 0.081249 0)
(0.738853 0.0828594 0)
(0.745345 0.0856981 0)
(0.750498 0.0891189 0)
(0.754878 0.0911469 0)
(0.758883 0.0907978 0)
(0.762066 0.0884432 0)
(0.766072 0.0841023 0)
(0.771679 0.0792571 0)
(0.777771 0.0759334 0)
(0.782851 0.0748499 0)
(0.787437 0.0740984 0)
(0.792143 0.0744968 0)
(0.798059 0.0759953 0)
(0.803357 0.0780985 0)
(0.807727 0.0805964 0)
(0.811632 0.0820367 0)
(0.815686 0.0813864 0)
(0.820474 0.0790234 0)
(0.82572 0.0750521 0)
(0.829676 0.0730172 0)
(0.833097 0.074188 0)
(0.837067 0.0754618 0)
(0.841126 0.0740048 0)
(0.844127 0.0704477 0)
(0.848302 0.0657682 0)
(0.853598 0.0618533 0)
(0.858632 0.0606365 0)
(0.862959 0.0595326 0)
(0.867777 0.055866 0)
(0.873747 0.0504971 0)
(0.8799 0.0472136 0)
(0.885118 0.0457382 0)
(0.89057 0.0456031 0)
(0.897157 0.0453242 0)
(0.903779 0.0457295 0)
(0.909178 0.0465663 0)
(0.913846 0.0465349 0)
(0.917834 0.0424898 0)
(0.922086 0.033766 0)
(0.929463 0.0266673 0)
(0.9363 0.0224302 0)
(0.941924 0.018851 0)
(0.948229 0.0157499 0)
(0.955848 0.012722 0)
(0.962785 0.00920378 0)
(0.967868 0.00738237 0)
(0.964284 0.00634093 0)
(0.965834 0.00215414 0)
(1.00029 -0.00694271 0)
(1.01571 -0.0171284 0)
(1.01988 -0.0259241 0)
(1.02317 -0.0285172 0)
(1.02344 -0.0295781 0)
(1.01956 -0.0376415 0)
(1.01536 -0.0509166 0)
(1.01295 -0.0606915 0)
(1.01125 -0.0649292 0)
(1.00549 -0.0705972 0)
(0.99717 -0.0839315 0)
(0.992416 -0.0942576 0)
(0.985205 -0.103553 0)
(0.975043 -0.111738 0)
(0.967158 -0.124165 0)
(0.956531 -0.137817 0)
(0.942401 -0.147663 0)
(0.931709 -0.159429 0)
(0.918908 -0.174155 0)
(0.900142 -0.186568 0)
(0.885128 -0.198874 0)
(0.867695 -0.21389 0)
(0.848197 -0.227111 0)
(0.829748 -0.240597 0)
(0.809491 -0.253892 0)
(0.787486 -0.266298 0)
(0.766304 -0.279013 0)
(0.742706 -0.291664 0)
(0.719254 -0.303795 0)
(0.693456 -0.313688 0)
(0.666663 -0.32464 0)
(0.637994 -0.337038 0)
(0.609815 -0.34287 0)
(0.578266 -0.347249 0)
(0.544961 -0.354182 0)
(0.510139 -0.356898 0)
(0.472956 -0.356428 0)
(0.433495 -0.352979 0)
(0.392577 -0.345971 0)
(0.350968 -0.334221 0)
(0.309784 -0.319266 0)
(0.267506 -0.300851 0)
(0.226815 -0.272393 0)
(0.187805 -0.238321 0)
(0.152951 -0.197377 0)
(0.123586 -0.150843 0)
(0.101385 -0.0992399 0)
(0.0884897 -0.0432677 0)
(0.0830431 0.0114923 0)
(0.0807061 0.0665919 0)
(0.0865688 0.122491 0)
(0.102655 0.176603 0)
(0.127427 0.227872 0)
(0.159572 0.275614 0)
(0.198165 0.316698 0)
(0.240368 0.353364 0)
(0.287018 0.379352 0)
(0.333656 0.400503 0)
(0.381613 0.41739 0)
(0.429541 0.428488 0)
(0.476066 0.434566 0)
(0.520161 0.436942 0)
(0.56122 0.434384 0)
(0.600284 0.427789 0)
(0.63918 0.419232 0)
(0.672583 0.414386 0)
(0.704778 0.402631 0)
(0.735827 0.387882 0)
(0.766733 0.375275 0)
(0.791736 0.362127 0)
(0.819655 0.348724 0)
(0.842681 0.333409 0)
(0.866477 0.318803 0)
(0.889579 0.30328 0)
(0.908383 0.285981 0)
(0.934039 0.27133 0)
(0.947015 0.254525 0)
(0.968603 0.240543 0)
(0.985697 0.223822 0)
(0.998369 0.207579 0)
(1.01848 0.195207 0)
(1.03139 0.177415 0)
(1.04031 0.16133 0)
(1.05513 0.15316 0)
(1.06676 0.138896 0)
(1.07317 0.123632 0)
(1.08364 0.111892 0)
(1.09442 0.103575 0)
(1.09694 0.0958941 0)
(1.10357 0.0793358 0)
(1.11187 0.073459 0)
(1.11629 0.068344 0)
(1.11933 0.0535767 0)
(1.12887 0.0409652 0)
(1.13484 0.0378937 0)
(1.13385 0.0364762 0)
(1.13442 0.0296636 0)
(1.13848 0.0127869 0)
(1.14644 0.00285577 0)
(1.14818 0.00413693 0)
(1.14717 0.00389962 0)
(1.14795 -0.00130536 0)
(1.14874 -0.0151843 0)
(1.1545 -0.0263212 0)
(1.15795 -0.0299871 0)
(1.15893 -0.0279589 0)
(1.15592 -0.0273135 0)
(1.1547 -0.0313819 0)
(1.15339 -0.0447389 0)
(1.15809 -0.0533871 0)
(1.16012 -0.0564975 0)
(1.1594 -0.0527819 0)
(1.14858 -0.0455518 0)
(0.970651 -0.0161599 0)
(0.786303 -0.0338384 0)
(0.762761 -0.0440024 0)
(0.765862 -0.0509958 0)
(0.77274 -0.0572666 0)
(0.779961 -0.0611743 0)
(0.785907 -0.0596958 0)
(0.788349 -0.0557168 0)
(0.789077 -0.0538734 0)
(0.789893 -0.0531825 0)
(0.790245 -0.0538123 0)
(0.790203 -0.0558229 0)
(0.788675 -0.0587009 0)
(0.786343 -0.0619945 0)
(0.784087 -0.0660765 0)
(0.781579 -0.0707844 0)
(0.779195 -0.074744 0)
(0.777508 -0.0778899 0)
(0.775552 -0.0805246 0)
(0.773402 -0.0828843 0)
(0.770956 -0.0844517 0)
(0.767729 -0.0847663 0)
(0.764823 -0.0851821 0)
(0.761422 -0.0853848 0)
(0.757795 -0.0858414 0)
(0.754179 -0.0854902 0)
(0.749947 -0.0852052 0)
(0.745823 -0.084116 0)
(0.741188 -0.0830312 0)
(0.736215 -0.0820363 0)
(0.730795 -0.0813993 0)
(0.725102 -0.0794258 0)
(0.718835 -0.0781327 0)
(0.713502 -0.0792932 0)
(0.708725 -0.0830068 0)
(0.701959 -0.0838864 0)
(0.694357 -0.0804552 0)
(0.686415 -0.0788471 0)
(0.680197 -0.0821104 0)
(0.673602 -0.0877583 0)
(0.665794 -0.0868733 0)
(0.657591 -0.081774 0)
(0.648733 -0.0776098 0)
(0.641442 -0.0754821 0)
(0.634142 -0.0750746 0)
(0.626488 -0.0765702 0)
(0.619179 -0.0792015 0)
(0.612452 -0.0816033 0)
(0.606572 -0.0831158 0)
(0.601128 -0.0853644 0)
(0.596648 -0.0858867 0)
(0.592658 -0.0854925 0)
(0.588284 -0.0854591 0)
(0.583749 -0.0854465 0)
(0.579488 -0.0869177 0)
(0.574767 -0.0916528 0)
(0.566737 -0.0963189 0)
(0.552716 -0.103476 0)
(0.488417 -0.127346 0)
(0.34109 -0.128662 0)
(0.218252 -0.0619322 0)
(0.292147 0.0649508 0)
(0.410741 0.117032 0)
(0.535178 0.109188 0)
(0.589993 0.0991633 0)
(0.604614 0.0933357 0)
(0.612887 0.0873983 0)
(0.618552 0.0833146 0)
(0.622626 0.0812829 0)
(0.627087 0.0802314 0)
(0.631885 0.0797526 0)
(0.636844 0.0799976 0)
(0.642194 0.0808614 0)
(0.647623 0.0816455 0)
(0.65316 0.0824703 0)
(0.658974 0.0833914 0)
(0.665231 0.0842731 0)
(0.671882 0.0854146 0)
(0.678608 0.086991 0)
(0.685469 0.0883819 0)
(0.692815 0.0903759 0)
(0.699934 0.0919353 0)
(0.707001 0.0936615 0)
(0.714054 0.0940027 0)
(0.720753 0.0938958 0)
(0.726888 0.0928627 0)
(0.732296 0.0901372 0)
(0.738465 0.0855877 0)
(0.745558 0.0830246 0)
(0.751111 0.0823969 0)
(0.756658 0.0826624 0)
(0.762181 0.084003 0)
(0.767196 0.0869592 0)
(0.771803 0.0889512 0)
(0.776549 0.0885347 0)
(0.780988 0.0875978 0)
(0.785008 0.0855921 0)
(0.789035 0.0823037 0)
(0.793863 0.0790656 0)
(0.799642 0.0758278 0)
(0.804821 0.0744618 0)
(0.809472 0.0736508 0)
(0.814302 0.0733988 0)
(0.819108 0.0743079 0)
(0.823902 0.0758626 0)
(0.828697 0.0742916 0)
(0.832443 0.0703148 0)
(0.835807 0.0676679 0)
(0.840045 0.066746 0)
(0.845108 0.0675269 0)
(0.850074 0.0695917 0)
(0.854746 0.0710185 0)
(0.85953 0.0702696 0)
(0.864399 0.0685262 0)
(0.869372 0.0665722 0)
(0.874086 0.064936 0)
(0.87852 0.0635015 0)
(0.882568 0.0606021 0)
(0.886288 0.0546771 0)
(0.891041 0.0493406 0)
(0.896816 0.0462216 0)
(0.902661 0.0436087 0)
(0.908433 0.0409768 0)
(0.914154 0.0390387 0)
(0.920233 0.0395981 0)
(0.926313 0.040633 0)
(0.931601 0.0379706 0)
(0.936511 0.0339844 0)
(0.940764 0.0287222 0)
(0.946521 0.0220536 0)
(0.953199 0.0165978 0)
(0.95982 0.0121248 0)
(0.96585 0.0075549 0)
(0.969815 0.00329603 0)
(0.966536 -0.000166167 0)
(0.96943 -0.00151485 0)
(1.00643 -0.00556714 0)
(1.02075 -0.0111275 0)
(1.0229 -0.0236992 0)
(1.02329 -0.0315833 0)
(1.02346 -0.035134 0)
(1.02262 -0.0374202 0)
(1.01938 -0.0454872 0)
(1.0148 -0.0591692 0)
(1.01024 -0.0683428 0)
(1.00674 -0.0724937 0)
(0.999014 -0.0809385 0)
(0.992981 -0.0927355 0)
(0.984867 -0.104801 0)
(0.97607 -0.111822 0)
(0.967663 -0.121785 0)
(0.95651 -0.137494 0)
(0.94284 -0.148052 0)
(0.931872 -0.156736 0)
(0.918418 -0.173166 0)
(0.899986 -0.186951 0)
(0.885005 -0.198148 0)
(0.867375 -0.211742 0)
(0.84738 -0.226218 0)
(0.828472 -0.23966 0)
(0.807839 -0.252337 0)
(0.78571 -0.264718 0)
(0.764314 -0.277333 0)
(0.740847 -0.288776 0)
(0.716128 -0.302471 0)
(0.690559 -0.310534 0)
(0.664138 -0.319976 0)
(0.6348 -0.329919 0)
(0.604205 -0.34014 0)
(0.572707 -0.343688 0)
(0.540729 -0.342891 0)
(0.50529 -0.345519 0)
(0.469051 -0.344448 0)
(0.431094 -0.338871 0)
(0.391843 -0.330287 0)
(0.35193 -0.317493 0)
(0.311901 -0.301586 0)
(0.270971 -0.280245 0)
(0.233246 -0.249639 0)
(0.198257 -0.215302 0)
(0.167929 -0.175585 0)
(0.142933 -0.131968 0)
(0.125099 -0.0848923 0)
(0.115757 -0.0358806 0)
(0.111248 0.0116257 0)
(0.108533 0.0595627 0)
(0.112463 0.108716 0)
(0.125512 0.15798 0)
(0.146826 0.205448 0)
(0.174228 0.250835 0)
(0.208554 0.2914 0)
(0.24691 0.329076 0)
(0.291039 0.357762 0)
(0.33572 0.379876 0)
(0.381102 0.397707 0)
(0.426422 0.4107 0)
(0.470685 0.419303 0)
(0.513637 0.422263 0)
(0.555986 0.419562 0)
(0.594638 0.419641 0)
(0.629929 0.418722 0)
(0.666207 0.408334 0)
(0.700428 0.395799 0)
(0.731888 0.38228 0)
(0.761248 0.373713 0)
(0.787587 0.359618 0)
(0.816012 0.345521 0)
(0.839416 0.33136 0)
(0.863851 0.316436 0)
(0.887554 0.300594 0)
(0.907386 0.284868 0)
(0.931267 0.271465 0)
(0.945539 0.254432 0)
(0.967349 0.239615 0)
(0.985286 0.220337 0)
(0.997973 0.208209 0)
(1.0182 0.194084 0)
(1.03191 0.173911 0)
(1.04064 0.162101 0)
(1.05551 0.152952 0)
(1.06795 0.136408 0)
(1.07558 0.120345 0)
(1.08523 0.113452 0)
(1.09311 0.106934 0)
(1.09909 0.0939229 0)
(1.10648 0.0774891 0)
(1.11235 0.0753153 0)
(1.11953 0.0662085 0)
(1.12591 0.0494584 0)
(1.131 0.0449474 0)
(1.13453 0.0434622 0)
(1.13747 0.0352657 0)
(1.14053 0.0216897 0)
(1.14676 0.0114975 0)
(1.14931 0.0102016 0)
(1.14948 0.00946302 0)
(1.15188 0.00238974 0)
(1.15482 -0.0101195 0)
(1.15888 -0.0190759 0)
(1.16056 -0.021459 0)
(1.16095 -0.0212754 0)
(1.16162 -0.0237573 0)
(1.16269 -0.0297638 0)
(1.16348 -0.0413261 0)
(1.16567 -0.0478075 0)
(1.16667 -0.0496018 0)
(1.16575 -0.047194 0)
(1.16424 -0.0498981 0)
(1.15652 -0.0477629 0)
(1.00655 -0.0275639 0)
(0.837053 -0.0439088 0)
(0.813517 -0.05474 0)
(0.813743 -0.0572097 0)
(0.816688 -0.05726 0)
(0.818486 -0.0537944 0)
(0.819004 -0.0515775 0)
(0.820296 -0.0528864 0)
(0.819212 -0.0558619 0)
(0.816876 -0.0605078 0)
(0.815017 -0.0653645 0)
(0.813541 -0.0695587 0)
(0.812472 -0.0728268 0)
(0.810632 -0.0752656 0)
(0.808321 -0.0774295 0)
(0.805629 -0.0788452 0)
(0.802205 -0.0793631 0)
(0.798839 -0.0802411 0)
(0.795178 -0.0796502 0)
(0.791214 -0.0782179 0)
(0.787445 -0.0763669 0)
(0.783287 -0.0751586 0)
(0.779129 -0.0748376 0)
(0.774554 -0.0749017 0)
(0.76994 -0.0749458 0)
(0.765595 -0.0755793 0)
(0.76074 -0.0760312 0)
(0.755673 -0.0757149 0)
(0.750829 -0.0768271 0)
(0.745586 -0.0771237 0)
(0.740329 -0.0773598 0)
(0.73475 -0.0782136 0)
(0.729174 -0.0787907 0)
(0.723754 -0.0803078 0)
(0.717809 -0.0807455 0)
(0.710827 -0.0797221 0)
(0.703402 -0.0800293 0)
(0.696546 -0.0815384 0)
(0.690242 -0.0827635 0)
(0.682112 -0.0816662 0)
(0.674055 -0.0805382 0)
(0.666388 -0.0800749 0)
(0.658386 -0.0804722 0)
(0.649526 -0.0839807 0)
(0.6423 -0.0874279 0)
(0.636561 -0.0885831 0)
(0.631075 -0.0886966 0)
(0.625654 -0.0878936 0)
(0.620376 -0.0874441 0)
(0.615021 -0.0863292 0)
(0.610457 -0.0848157 0)
(0.60645 -0.0825407 0)
(0.602417 -0.0816504 0)
(0.597745 -0.0819245 0)
(0.592613 -0.0847357 0)
(0.585597 -0.089713 0)
(0.575341 -0.0953628 0)
(0.559496 -0.0994229 0)
(0.504504 -0.106031 0)
(0.393951 -0.111368 0)
(0.29026 -0.0503598 0)
(0.345469 0.0602627 0)
(0.451878 0.0962044 0)
(0.550124 0.0875134 0)
(0.590231 0.0836976 0)
(0.604795 0.0810174 0)
(0.614487 0.0812291 0)
(0.621169 0.0808584 0)
(0.626014 0.0800053 0)
(0.630603 0.0797369 0)
(0.635494 0.0792934 0)
(0.640652 0.0791345 0)
(0.645833 0.0795045 0)
(0.651259 0.0801225 0)
(0.656752 0.0810256 0)
(0.66246 0.0819957 0)
(0.668575 0.0827625 0)
(0.67491 0.0834601 0)
(0.681484 0.0839485 0)
(0.688303 0.0846363 0)
(0.695324 0.0852374 0)
(0.702744 0.0860407 0)
(0.709965 0.0872051 0)
(0.717 0.0894173 0)
(0.723733 0.0916471 0)
(0.730193 0.0929061 0)
(0.736565 0.0927754 0)
(0.742424 0.0918866 0)
(0.747753 0.088763 0)
(0.753554 0.0844221 0)
(0.759403 0.0827861 0)
(0.764604 0.0819756 0)
(0.769543 0.0817372 0)
(0.774637 0.0828051 0)
(0.779491 0.0855113 0)
(0.78418 0.0871944 0)
(0.789013 0.0872449 0)
(0.793923 0.0865171 0)
(0.798476 0.0851088 0)
(0.802732 0.0825535 0)
(0.807305 0.0778988 0)
(0.812295 0.0745855 0)
(0.817056 0.072979 0)
(0.82147 0.0719657 0)
(0.825769 0.0716908 0)
(0.830379 0.0714983 0)
(0.834868 0.0706225 0)
(0.838615 0.0682446 0)
(0.842908 0.066541 0)
(0.847556 0.0648413 0)
(0.852415 0.0639594 0)
(0.857303 0.0652479 0)
(0.862214 0.0669478 0)
(0.867168 0.0668652 0)
(0.87207 0.064774 0)
(0.87686 0.0627826 0)
(0.881481 0.0622695 0)
(0.886407 0.0616628 0)
(0.891389 0.0596141 0)
(0.89533 0.0560328 0)
(0.899541 0.0520897 0)
(0.90491 0.0469465 0)
(0.910836 0.0419009 0)
(0.916234 0.0385956 0)
(0.921511 0.0358098 0)
(0.927547 0.0346479 0)
(0.933296 0.0355998 0)
(0.938562 0.0342169 0)
(0.944025 0.0316716 0)
(0.950111 0.0277729 0)
(0.955332 0.0215803 0)
(0.96125 0.0153568 0)
(0.966971 0.00971812 0)
(0.970916 0.00410099 0)
(0.967074 -0.001278 0)
(0.968511 -0.0059401 0)
(1.00627 -0.00831978 0)
(1.02077 -0.0107805 0)
(1.02367 -0.0183086 0)
(1.02348 -0.0301079 0)
(1.02267 -0.0381448 0)
(1.02069 -0.0420218 0)
(1.01873 -0.0450443 0)
(1.01457 -0.0553891 0)
(1.01009 -0.0680797 0)
(1.00438 -0.0764271 0)
(0.998022 -0.0813343 0)
(0.992213 -0.0902617 0)
(0.984359 -0.103735 0)
(0.973858 -0.114339 0)
(0.96606 -0.121195 0)
(0.955738 -0.135733 0)
(0.941658 -0.149537 0)
(0.929726 -0.157311 0)
(0.917108 -0.171353 0)
(0.899034 -0.185807 0)
(0.883314 -0.19905 0)
(0.866084 -0.211377 0)
(0.8468 -0.22501 0)
(0.82703 -0.238702 0)
(0.806349 -0.251684 0)
(0.784409 -0.263917 0)
(0.762465 -0.276197 0)
(0.738848 -0.286134 0)
(0.714151 -0.298161 0)
(0.687201 -0.310435 0)
(0.661134 -0.316337 0)
(0.632821 -0.322101 0)
(0.601461 -0.331374 0)
(0.569324 -0.337002 0)
(0.536425 -0.338528 0)
(0.502987 -0.334571 0)
(0.467592 -0.332421 0)
(0.431158 -0.326009 0)
(0.394027 -0.316389 0)
(0.35663 -0.302833 0)
(0.318937 -0.285756 0)
(0.281055 -0.262599 0)
(0.247169 -0.232788 0)
(0.215968 -0.199973 0)
(0.188978 -0.162551 0)
(0.166422 -0.121624 0)
(0.15027 -0.0774783 0)
(0.14178 -0.031769 0)
(0.137525 0.0126112 0)
(0.135226 0.0574926 0)
(0.139543 0.103542 0)
(0.1518 0.149621 0)
(0.171384 0.193646 0)
(0.195722 0.235737 0)
(0.226116 0.274096 0)
(0.260708 0.309794 0)
(0.300845 0.339499 0)
(0.342362 0.362495 0)
(0.384535 0.380913 0)
(0.427083 0.394912 0)
(0.469385 0.404069 0)
(0.511109 0.408169 0)
(0.549528 0.414067 0)
(0.588167 0.414445 0)
(0.626032 0.409402 0)
(0.661875 0.398727 0)
(0.696993 0.387707 0)
(0.725899 0.382161 0)
(0.756985 0.371256 0)
(0.784339 0.355372 0)
(0.812379 0.343268 0)
(0.83604 0.329219 0)
(0.860911 0.314722 0)
(0.884027 0.300067 0)
(0.904076 0.285513 0)
(0.92829 0.270015 0)
(0.943902 0.253026 0)
(0.96528 0.237206 0)
(0.982165 0.22027 0)
(0.995913 0.2089 0)
(1.01629 0.19141 0)
(1.02836 0.174709 0)
(1.03738 0.165735 0)
(1.05482 0.151069 0)
(1.06606 0.134191 0)
(1.07303 0.122329 0)
(1.08262 0.116263 0)
(1.09275 0.105709 0)
(1.09922 0.08912 0)
(1.10442 0.0801378 0)
(1.11194 0.0748575 0)
(1.11985 0.0607031 0)
(1.12487 0.0514672 0)
(1.1289 0.04949 0)
(1.13498 0.0427036 0)
(1.13856 0.0304195 0)
(1.14238 0.0183825 0)
(1.14667 0.0151858 0)
(1.14872 0.0150126 0)
(1.15078 0.00824095 0)
(1.15377 -0.00292424 0)
(1.15833 -0.0140796 0)
(1.15978 -0.0165774 0)
(1.15995 -0.0153342 0)
(1.16156 -0.0193628 0)
(1.16346 -0.0252321 0)
(1.16562 -0.0362473 0)
(1.16721 -0.043934 0)
(1.16742 -0.0447224 0)
(1.16706 -0.0432591 0)
(1.16759 -0.0458415 0)
(1.16659 -0.0526354 0)
(1.1606 -0.0549904 0)
(1.02385 -0.0366349 0)
(0.856254 -0.0511155 0)
(0.834308 -0.0538184 0)
(0.83237 -0.0516177 0)
(0.832033 -0.0504557 0)
(0.832812 -0.0515794 0)
(0.83122 -0.0554128 0)
(0.830282 -0.0618632 0)
(0.830892 -0.0670868 0)
(0.83019 -0.070037 0)
(0.828407 -0.0719834 0)
(0.825934 -0.0730567 0)
(0.823316 -0.0739086 0)
(0.820263 -0.0744868 0)
(0.816904 -0.0742251 0)
(0.813464 -0.0732392 0)
(0.809486 -0.0722873 0)
(0.805225 -0.0714073 0)
(0.800863 -0.0707533 0)
(0.796323 -0.0703972 0)
(0.792073 -0.0706674 0)
(0.787918 -0.0710569 0)
(0.783761 -0.0720435 0)
(0.779431 -0.0729596 0)
(0.774877 -0.0732217 0)
(0.770325 -0.0739794 0)
(0.765379 -0.0747465 0)
(0.760383 -0.0759384 0)
(0.755041 -0.0770761 0)
(0.749744 -0.0781801 0)
(0.744033 -0.0796625 0)
(0.738466 -0.0817345 0)
(0.732884 -0.08516 0)
(0.727127 -0.0866628 0)
(0.721071 -0.0832139 0)
(0.714281 -0.0816415 0)
(0.70701 -0.0845281 0)
(0.700162 -0.0894879 0)
(0.693235 -0.087696 0)
(0.686051 -0.0822617 0)
(0.677834 -0.0803615 0)
(0.669723 -0.082987 0)
(0.661645 -0.0892166 0)
(0.654938 -0.091191 0)
(0.64823 -0.0912396 0)
(0.641778 -0.090413 0)
(0.63579 -0.088448 0)
(0.630527 -0.0858623 0)
(0.625417 -0.082957 0)
(0.620505 -0.0796653 0)
(0.616088 -0.0762937 0)
(0.611661 -0.0745401 0)
(0.606521 -0.0746359 0)
(0.601098 -0.075368 0)
(0.595326 -0.0769003 0)
(0.587453 -0.0788424 0)
(0.577521 -0.0799219 0)
(0.561447 -0.0866641 0)
(0.516535 -0.0903828 0)
(0.426812 -0.0950482 0)
(0.342123 -0.0418705 0)
(0.39121 0.0482612 0)
(0.483437 0.0789302 0)
(0.559308 0.0718277 0)
(0.589899 0.0737302 0)
(0.604717 0.078267 0)
(0.615727 0.0810223 0)
(0.622353 0.0818216 0)
(0.627387 0.0825067 0)
(0.632096 0.0833104 0)
(0.636836 0.083842 0)
(0.641937 0.0843417 0)
(0.647295 0.0843305 0)
(0.652731 0.0846158 0)
(0.658336 0.0851058 0)
(0.664012 0.0855065 0)
(0.670057 0.0857356 0)
(0.676313 0.085771 0)
(0.683081 0.0854929 0)
(0.689987 0.0853434 0)
(0.697177 0.0851982 0)
(0.704373 0.0856689 0)
(0.711759 0.0855518 0)
(0.718744 0.0856142 0)
(0.725441 0.0861429 0)
(0.732015 0.0874155 0)
(0.738218 0.0894588 0)
(0.74369 0.091339 0)
(0.749344 0.0914049 0)