/*--------------------------------*- C++ -*----------------------------------*\
| =========                 |                                                 |
| \\      /  F ield         | OpenFOAM: The Open Source CFD Toolbox           |
|  \\    /   O peration     | Version:  4.x                                   |
|   \\  /    A nd           | Web:      www.OpenFOAM.org                      |
|    \\/     M anipulation  |                                                 |
\*---------------------------------------------------------------------------*/
FoamFile
{
    version     2.0;
    format      ascii;
    class       volScalarField;
    location    "51";
    object      p;
}
// * * * * * * * * * * * * * * * * * * * * * * * * * * * * * * * * * * * * * //

dimensions      [1 -1 -2 0 0 0 0];

internalField   nonuniform List<scalar> 
24651
(
1.11567
1.08427
1.07465
1.12925
1.12446
1.1226
1.12046
1.11725
1.11416
1.11088
1.10767
1.10382
1.09942
1.0944
1.08943
1.08434
1.07949
1.07429
1.06902
1.06246
1.05549
1.0464
1.03735
1.03019
1.02516
1.02271
1.01733
1.00931
1.00024
0.994739
0.99337
0.989983
0.98305
0.974592
0.970672
0.970246
0.966115
0.957283
0.951544
0.949991
0.947237
0.939982
0.933917
0.932256
0.929605
0.922055
0.916053
0.914728
0.911359
0.903016
0.89764
0.896685
0.892091
0.883348
0.879111
0.877611
0.870762
0.86348
0.860467
0.856687
0.849119
0.841831
0.839112
0.834235
0.825853
0.820042
0.817141
0.810597
0.802183
0.797025
0.792698
0.785183
0.778075
0.78617
0.783313
0.740367
0.724001
0.721943
0.720141
0.720558
0.723036
0.724127
0.727058
0.733508
0.735809
0.742627
0.748672
0.75588
0.765051
0.771788
0.783374
0.792601
0.804023
0.816358
0.829626
0.843014
0.85772
0.873183
0.889653
0.905628
0.923348
0.940885
0.959698
0.978822
0.999052
1.0199
1.042
1.06504
1.08948
1.1152
1.14255
1.17142
1.20209
1.2345
1.26835
1.30342
1.33372
1.36965
1.40197
1.43072
1.45494
1.47254
1.48478
1.48844
1.48234
1.46991
1.45049
1.42392
1.39119
1.35333
1.31081
1.27398
1.23141
1.18988
1.1502
1.11287
1.07814
1.04565
1.01542
0.987549
0.961561
0.937727
0.914932
0.893925
0.87354
0.854996
0.836589
0.819667
0.803836
0.785537
0.772576
0.756849
0.742543
0.728792
0.715064
0.705561
0.691679
0.680229
0.672425
0.663958
0.651235
0.646267
0.63772
0.631545
0.623807
0.618322
0.612322
0.60844
0.604248
0.595934
0.593563
0.590947
0.58744
0.582505
0.57905
0.578033
0.575502
0.571768
0.568625
0.568323
0.567218
0.564153
0.562473
0.563848
0.562428
0.560138
0.559612
0.567145
0.724865
0.904181
0.922502
0.91712
0.914072
0.913446
0.912976
0.911983
0.910358
0.910869
0.912881
0.917119
0.920506
0.923359
0.92503
0.926644
0.930055
0.934939
0.940961
0.944965
0.94681
0.950081
0.954961
0.959363
0.962961
0.96699
0.971779
0.976623
0.98125
0.986142
0.991473
0.996946
1.00251
1.00814
1.01409
1.02039
1.02711
1.03404
1.04124
1.04841
1.05561
1.06267
1.06976
1.07661
1.08325
1.08938
1.09503
1.10013
1.10478
1.10897
1.11278
1.11627
1.11916
1.12215
1.12464
1.12732
1.12929
1.12861
1.10411
1.11001
1.11608
1.13236
1.13952
1.11386
1.13293
1.12965
1.12703
1.12449
1.12175
1.11901
1.1162
1.11309
1.10834
1.10282
1.09659
1.08969
1.08257
1.07571
1.06903
1.06212
1.05737
1.05425
1.0508
1.04537
1.03499
1.02278
1.01448
1.0132
1.01311
1.00902
0.996723
0.987256
0.984992
0.986371
0.982903
0.970875
0.962942
0.963937
0.964101
0.95518
0.945033
0.943571
0.945072
0.937861
0.927869
0.926336
0.927377
0.919173
0.909604
0.909391
0.909587
0.899189
0.890845
0.891521
0.889871
0.878207
0.872528
0.874139
0.868155
0.857343
0.853758
0.852781
0.84579
0.836066
0.8332
0.830906
0.821915
0.813796
0.810742
0.807074
0.797964
0.79027
0.786643
0.780893
0.78505
0.784886
0.74253
0.723003
0.722021
0.7223
0.72002
0.723146
0.726373
0.728853
0.734916
0.737911
0.74466
0.749177
0.755961
0.767019
0.772636
0.784282
0.793579
0.806232
0.818057
0.831256
0.845895
0.86068
0.876069
0.893092
0.909713
0.927854
0.94581
0.965114
0.984696
1.00545
1.02684
1.04948
1.07304
1.09798
1.12409
1.15171
1.18065
1.21113
1.24288
1.27585
1.30874
1.34052
1.3709
1.39949
1.4259
1.4482
1.46528
1.48121
1.48467
1.47844
1.46246
1.44379
1.41936
1.38959
1.35678
1.3206
1.28187
1.24222
1.20208
1.16345
1.12652
1.09176
1.05906
1.0284
0.999887
0.972956
0.948286
0.924409
0.902831
0.881587
0.862321
0.843208
0.824947
0.80821
0.7905
0.777127
0.759218
0.746228
0.731948
0.717987
0.708517
0.692993
0.682823
0.675233
0.664817
0.652487
0.64909
0.64053
0.632992
0.624019
0.621247
0.614712
0.608274
0.604418
0.599682
0.594936
0.589745
0.586559
0.585561
0.580911
0.576988
0.573069
0.571745
0.572701
0.56911
0.564648
0.563829
0.566271
0.563983
0.559153
0.559835
0.563515
0.568853
0.721051
0.89744
0.91937
0.918321
0.918397
0.914827
0.909993
0.908262
0.910206
0.915228
0.918233
0.918715
0.917639
0.91775
0.92144
0.927814
0.935803
0.93964
0.940271
0.940104
0.945304
0.952639
0.956041
0.958158
0.962476
0.967762
0.97214
0.976078
0.981077
0.986591
0.991811
0.996782
1.00205
1.00783
1.01406
1.02054
1.02732
1.0343
1.04151
1.04869
1.05588
1.0629
1.06994
1.07669
1.0833
1.08938
1.09503
1.10015
1.10482
1.10902
1.11283
1.1163
1.11918
1.12223
1.12455
1.12775
1.12727
1.13089
1.11732
1.12685
1.13769
1.15677
1.14901
1.13619
1.13967
1.13136
1.12535
1.12173
1.11897
1.11641
1.11395
1.11149
1.10848
1.10531
1.10157
1.09715
1.09108
1.08379
1.07495
1.06551
1.05572
1.04714
1.04258
1.04077
1.03915
1.03328
1.02006
1.00898
1.00452
1.00598
1.00496
0.994088
0.982349
0.978182
0.980764
0.979441
0.967519
0.957794
0.958234
0.959737
0.95144
0.940616
0.938834
0.941041
0.933858
0.923414
0.92198
0.923454
0.914476
0.904732
0.905287
0.904997
0.894091
0.885787
0.88771
0.884819
0.872909
0.868038
0.869547
0.861984
0.851711
0.847663
0.847349
0.838891
0.829886
0.828177
0.825104
0.814562
0.807215
0.805405
0.800779
0.790366
0.783621
0.781683
0.785622
0.782585
0.743272
0.725238
0.720664
0.723109
0.721565
0.722148
0.725472
0.730375
0.735342
0.738424
0.745983
0.751281
0.756593
0.767829
0.7738
0.784992
0.795595
0.807955
0.819341
0.832242
0.847482
0.862885
0.878436
0.895545
0.91228
0.930809
0.949451
0.969199
0.989217
1.01047
1.03233
1.0555
1.07956
1.10499
1.13155
1.15953
1.18866
1.21908
1.25039
1.28249
1.3143
1.34776
1.37904
1.40777
1.43307
1.45384
1.46938
1.47901
1.48169
1.47704
1.46678
1.44996
1.42747
1.39948
1.36661
1.33033
1.29038
1.25211
1.21328
1.17533
1.13852
1.10347
1.07027
1.03891
1.0097
0.981903
0.956489
0.931757
0.909517
0.887383
0.867275
0.847728
0.829063
0.812271
0.794272
0.778985
0.76065
0.748312
0.734526
0.718597
0.709158
0.695543
0.684732
0.676465
0.66561
0.655145
0.64991
0.63999
0.632327
0.626699
0.622009
0.613319
0.60671
0.605833
0.600078
0.592541
0.589383
0.588541
0.586179
0.577994
0.575325
0.574156
0.574642
0.57253
0.565658
0.564679
0.567245
0.566436
0.560414
0.55987
0.563665
0.563248
0.564894
0.717393
0.899584
0.925485
0.921801
0.91593
0.909971
0.909251
0.912678
0.91625
0.915573
0.913721
0.912125
0.914976
0.921341
0.928957
0.934341
0.934878
0.933985
0.934927
0.942271
0.950887
0.952652
0.953468
0.958222
0.963924
0.96779
0.971297
0.976289
0.981801
0.986612
0.991235
0.996532
1.00239
1.00838
1.01455
1.02086
1.02752
1.0344
1.04153
1.04863
1.05574
1.06277
1.06989
1.07665
1.08327
1.08941
1.09507
1.10017
1.1048
1.10899
1.1128
1.11633
1.11936
1.12248
1.12501
1.12946
1.13404
1.13918
1.13738
1.1473
1.13511
1.16373
1.17366
1.15173
1.14275
1.12939
1.12319
1.1198
1.11592
1.11216
1.10864
1.10523
1.10169
1.09856
1.0952
1.09158
1.08769
1.08368
1.07848
1.07225
1.06339
1.05208
1.04155
1.03408
1.03112
1.03138
1.02613
1.01574
1.00388
0.998031
0.999397
0.997536
0.989458
0.977923
0.972947
0.975831
0.973012
0.962615
0.953795
0.953369
0.953702
0.946161
0.936352
0.935157
0.935766
0.928286
0.918941
0.918276
0.917601
0.908802
0.900932
0.90196
0.898751
0.888259
0.882489
0.883893
0.878255
0.867315
0.864713
0.863593
0.85597
0.846431
0.843774
0.841194
0.83215
0.82505
0.823992
0.818429
0.808517
0.802082
0.800337
0.793756
0.783793
0.780512
0.78783
0.78269
0.742532
0.726376
0.722148
0.722577
0.723051
0.723748
0.72493
0.730466
0.73659
0.738111
0.746196
0.75242
0.759061
0.769278
0.775477
0.78692
0.797159
0.809503
0.821964
0.834631
0.849583
0.865135
0.880978
0.898393
0.915599
0.934429
0.953086
0.973352
0.993696
1.01542
1.03768
1.06127
1.08572
1.11152
1.13839
1.16664
1.19596
1.2264
1.25745
1.28868
1.31944
1.35176
1.38082
1.40809
1.43166
1.45119
1.46595
1.47463
1.47696
1.4728
1.4633
1.44739
1.42632
1.40039
1.36931
1.33588
1.29795
1.26108
1.22346
1.18601
1.14929
1.11406
1.08054
1.04871
1.01902
0.990557
0.964578
0.939143
0.916302
0.893515
0.872998
0.85285
0.833588
0.816254
0.797268
0.782132
0.764493
0.751846
0.735959
0.719887
0.711461
0.697545
0.685373
0.677175
0.667646
0.655999
0.649554
0.639672
0.633727
0.627879
0.621584
0.612932
0.608443
0.607185
0.598759
0.592738
0.592135
0.590461
0.585337
0.577748
0.577835
0.577465
0.575118
0.569937
0.566313
0.56828
0.567143
0.563602
0.561594
0.563773
0.563322
0.560101
0.564194
0.724101
0.911656
0.925624
0.917429
0.912327
0.912088
0.915346
0.915281
0.912532
0.909589
0.910397
0.914774
0.922011
0.927203
0.928777
0.928542
0.92774
0.931699
0.940126
0.948512
0.949101
0.948606
0.954046
0.960464
0.963676
0.966671
0.971711
0.977135
0.981564
0.98596
0.991432
0.997248
1.0029
1.00844
1.01425
1.02043
1.02708
1.03397
1.04114
1.0483
1.05549
1.06256
1.06966
1.07666
1.08335
1.08944
1.09504
1.10013
1.10482
1.10905
1.1129
1.11646
1.1196
1.12299
1.12578
1.13003
1.13774
1.14699
1.15039
1.1575
1.1527
1.18002
1.18158
1.16219
1.14618
1.13326
1.12929
1.12528
1.12043
1.11587
1.11147
1.10711
1.10215
1.09707
1.09175
1.08649
1.08141
1.07685
1.07306
1.06983
1.06454
1.05776
1.04836
1.03685
1.02785
1.02333
1.02393
1.01921
1.01087
0.999247
0.99307
0.994078
0.991664
0.984456
0.973602
0.96928
0.971478
0.967419
0.957534
0.950023
0.950498
0.948477
0.940623
0.932713
0.932877
0.930649
0.922356
0.915138
0.916121
0.912436
0.902916
0.897255
0.898129
0.893077
0.882928
0.879267
0.878812
0.871686
0.86308
0.862094
0.858131
0.849877
0.841854
0.840954
0.835563
0.825973
0.821039
0.818827
0.812069
0.802277
0.798747
0.794603
0.786583
0.779167
0.788037
0.785048
0.741589
0.72658
0.724242
0.722221
0.723446
0.72599
0.726195
0.729652
0.737026
0.738365
0.745979
0.752848
0.760289
0.770261
0.776583
0.788187
0.797868
0.81026
0.823726
0.83686
0.851836
0.867391
0.883554
0.901285
0.918791
0.938046
0.957077
0.977669
0.998477
1.02061
1.04332
1.06732
1.09216
1.11825
1.14532
1.17358
1.20277
1.2329
1.26347
1.29411
1.3246
1.35588
1.38341
1.40887
1.4305
1.4482
1.46108
1.4684
1.4705
1.46692
1.45869
1.44463
1.42532
1.40172
1.373
1.34141
1.30519
1.26898
1.23232
1.19565
1.15946
1.12445
1.09087
1.05872
1.02858
0.999487
0.972922
0.946751
0.92332
0.89989
0.878779
0.858045
0.838242
0.820392
0.800741
0.786313
0.768297
0.754151
0.73786
0.722787
0.714252
0.698667
0.685693
0.678433
0.668807
0.65578
0.649856
0.641062
0.635769
0.628221
0.620989
0.614492
0.61148
0.607517
0.598072
0.595327
0.593661
0.590767
0.584204
0.580283
0.580304
0.577822
0.57471
0.569391
0.569564
0.569153
0.565845
0.563046
0.564818
0.564213
0.561434
0.559789
0.566442
0.724203
0.910656
0.920078
0.915409
0.915648
0.916357
0.91461
0.910485
0.908523
0.910192
0.915114
0.920169
0.922991
0.92308
0.922456
0.924287
0.929248
0.937594
0.943674
0.944851
0.944379
0.950215
0.957195
0.959604
0.962278
0.967383
0.972675
0.976699
0.98102
0.986517
0.992201
0.997322
1.00238
1.0079
1.01401
1.02047
1.02727
1.03428
1.04153
1.04874
1.05597
1.06297
1.06997
1.07678
1.08332
1.08935
1.095
1.10017
1.1049
1.1091
1.11289
1.11646
1.11975
1.12347
1.1271
1.13155
1.13946
1.15036
1.16066
1.16951
1.15848
1.17721
1.18105
1.16298
1.1473
1.1401
1.13414
1.12806
1.12369
1.11998
1.11659
1.11286
1.10805
1.10217
1.09549
1.08885
1.08214
1.07576
1.06958
1.06414
1.06039
1.0567
1.05049
1.04315
1.03213
1.02213
1.01744
1.01731
1.01301
1.0055
0.994378
0.988844
0.98911
0.986197
0.97946
0.969553
0.966022
0.966895
0.961999
0.952704
0.946606
0.947097
0.943599
0.935449
0.929397
0.929694
0.925752
0.916997
0.911853
0.912145
0.907134
0.897678
0.894373
0.893344
0.887066
0.878291
0.876844
0.873769
0.86541
0.858923
0.857491
0.852391
0.843505
0.8382
0.835916
0.829718
0.820884
0.817364
0.812913
0.805799
0.797957
0.793949
0.788248
0.780344
0.78713
0.786846
0.742825
0.725466
0.724922
0.723566
0.72239
0.726741
0.728856
0.730259
0.737296
0.740889
0.746757
0.752881
0.760672
0.771296
0.777527
0.789219
0.79951
0.811819
0.825034
0.838726
0.854181
0.869964
0.886373
0.904419
0.922255
0.941856
0.961314
0.982202
1.00342
1.02585
1.04896
1.07323
1.09839
1.1247
1.15193
1.18015
1.20912
1.23871
1.26853
1.29827
1.32776
1.35699
1.38276
1.40676
1.42692
1.44326
1.45493
1.46159
1.46354
1.46021
1.45254
1.43967
1.42169
1.39968
1.3729
1.34343
1.30986
1.27515
1.2398
1.2042
1.16874
1.13411
1.10058
1.06827
1.03782
1.0083
0.981288
0.954554
0.930618
0.906554
0.884906
0.863567
0.843194
0.824901
0.805195
0.78998
0.771096
0.756442
0.74128
0.726046
0.715765
0.699969
0.6878
0.681145
0.669621
0.656563
0.652052
0.64481
0.63662
0.627724
0.622465
0.617686
0.612338
0.606743
0.600115
0.597545
0.593777
0.589352
0.585116
0.582689
0.580709
0.577006
0.573128
0.571528
0.57104
0.568558
0.56464
0.565221
0.565705
0.563134
0.560415
0.562248
0.567661
0.720837
0.904192
0.920159
0.91916
0.918145
0.915268
0.910383
0.908853
0.910653
0.914965
0.91758
0.919345
0.918476
0.918923
0.921996
0.927668
0.934818
0.939307
0.941103
0.940773
0.94599
0.953326
0.955893
0.95816
0.963307
0.968369
0.972116
0.976316
0.981737
0.987069
0.991845
0.996754
1.00237
1.00836
1.01464
1.02108
1.02783
1.03476
1.04192
1.04903
1.05615
1.06308
1.07009
1.07669
1.08323
1.08937
1.09506
1.10017
1.10481
1.10898
1.11283
1.11655
1.12008
1.12405
1.12848
1.13398
1.14254
1.15242
1.16466
1.17229
1.16148
1.17256
1.17539
1.16277
1.15035
1.14262
1.13322
1.12621
1.12154
1.1182
1.11531
1.11242
1.10881
1.1047
1.09971
1.09412
1.08739
1.07987
1.07172
1.06384
1.05701
1.05181
1.04798
1.04301
1.03654
1.02721
1.01731
1.01215
1.01065
1.00678
1.00011
0.9902
0.98481
0.984082
0.980877
0.974416
0.96567
0.962563
0.961837
0.956675
0.947917
0.943422
0.943053
0.938738
0.930602
0.926356
0.925576
0.920669
0.912181
0.908913
0.907444
0.901583
0.893446
0.891086
0.888303
0.881029
0.874524
0.873073
0.868339
0.859715
0.854663
0.852227
0.846484
0.838067
0.833948
0.83058
0.823541
0.815944
0.811913
0.807216
0.799655
0.792382
0.788255
0.782687
0.786699
0.786879
0.745051
0.726028
0.724403
0.72507
0.722737
0.726039
0.729834
0.732641
0.738102
0.742337
0.749184
0.754497
0.76149
0.772486
0.778929
0.790593
0.801758
0.813918
0.827044
0.840614
0.856519
0.87269
0.889358
0.907732
0.925911
0.945819
0.965676
0.986947
1.0086
1.03139
1.05489
1.07942
1.10482
1.13118
1.1584
1.18642
1.21508
1.24415
1.27328
1.30214
1.33047
1.35768
1.3818
1.40408
1.42241
1.43725
1.44775
1.45379
1.45562
1.4525
1.44535
1.43362
1.4172
1.3971
1.37227
1.34494
1.31383
1.28076
1.24672
1.2122
1.17752
1.14345
1.11018
1.07794
1.04733
1.01746
0.990001
0.962681
0.938181
0.913482
0.891271
0.869326
0.848428
0.829724
0.809525
0.793348
0.773795
0.759762
0.744847
0.727937
0.717228
0.702744
0.690999
0.682564
0.670941
0.65935
0.654103
0.646144
0.63626
0.628945
0.625334
0.618625
0.61145
0.607235
0.603075
0.597982
0.592663
0.589468
0.587512
0.583172
0.579437
0.575823
0.573818
0.573669
0.570821
0.567009
0.56596
0.567197
0.565107
0.56168
0.562193
0.563795
0.567282
0.71686
0.904506
0.924958
0.920922
0.917283
0.912112
0.910169
0.91183
0.914048
0.915469
0.916097
0.915496
0.916723
0.92041
0.926336
0.93142
0.935145
0.936752
0.937388
0.942071
0.949224
0.952449
0.954304
0.95937
0.964227
0.967734
0.971791
0.977042
0.982131
0.986615
0.991561
0.997162
1.00305
1.00883
1.01477
1.02099
1.02761
1.03445
1.04154
1.04863
1.05574
1.06273
1.06978
1.0766
1.08329
1.0894
1.09495
1.09998
1.10467
1.10898
1.11295
1.11673
1.12043
1.12461
1.12949
1.13578
1.14627
1.15595
1.16682
1.17259
1.15675
1.16932
1.17423
1.16614
1.15497
1.14194
1.13129
1.12418
1.11918
1.1154
1.11235
1.10933
1.1058
1.10214
1.09804
1.09319
1.08787
1.08232
1.07601
1.06838
1.05908
1.05096
1.04454
1.03973
1.03562
1.03
1.02212
1.01258
1.00692
1.00429
1.00078
0.994703
0.985873
0.980793
0.978951
0.975743
0.969488
0.961816
0.958563
0.9566
0.951469
0.943877
0.940184
0.938569
0.933839
0.92652
0.922966
0.920878
0.915477
0.908322
0.905597
0.902593
0.896068
0.889482
0.887282
0.8833
0.875728
0.870594
0.868332
0.862813
0.854863
0.850073
0.846783
0.840549
0.833133
0.829439
0.824916
0.817281
0.810563
0.806632
0.801489
0.793211
0.787022
0.783297
0.788047
0.785815
0.745815
0.728282
0.724437
0.725488
0.725189
0.72639
0.729418
0.733869
0.739149
0.742754
0.750399
0.756624
0.763193
0.77356
0.780815
0.792445
0.803464
0.815759
0.829666
0.843108
0.859025
0.875549
0.89255
0.911217
0.929765
0.950034
0.970239
0.991844
1.01385
1.03695
1.06075
1.08548
1.11105
1.13739
1.16451
1.19219
1.22035
1.24867
1.27689
1.3046
1.33158
1.35687
1.37962
1.40022
1.41702
1.4305
1.43993
1.44537
1.44708
1.44416
1.43753
1.42681
1.41176
1.3932
1.37026
1.3446
1.3158
1.28461
1.25215
1.21895
1.18528
1.152
1.11914
1.08713
1.05647
1.02641
0.998635
0.970872
0.945913
0.920653
0.897907
0.875414
0.853978
0.834834
0.81389
0.797239
0.777639
0.763207
0.747512
0.729885
0.719717
0.705944
0.692575
0.683761
0.672934
0.661593
0.654814
0.646492
0.636954
0.63144
0.626347
0.617847
0.61171
0.609278
0.60385
0.597095
0.593071
0.591936
0.58827
0.582109
0.579346
0.577108
0.576541
0.573876
0.569512
0.567881
0.568457
0.567208
0.563836
0.562956
0.564277
0.563427
0.565614
0.718163
0.912061
0.926426
0.919605
0.914857
0.91228
0.913195
0.91376
0.914008
0.913402
0.913354
0.915104
0.919234
0.924095
0.927714
0.930824
0.932307
0.93417
0.938616
0.94532
0.949082
0.950637
0.955255
0.960227
0.963611
0.967489
0.972563
0.97734
0.981688
0.986598
0.992212
0.997702
1.00299
1.00844
1.01439
1.02072
1.02743
1.03436
1.04155
1.04873
1.05591
1.06289
1.06985
1.07671
1.08329
1.08926
1.09478
1.09989
1.10471
1.10907
1.113
1.11675
1.12057
1.12504
1.1304
1.13715
1.14789
1.15881
1.16911
1.17357
1.15357
1.17108
1.17582
1.16851
1.156
1.14088
1.13237
1.12594
1.11998
1.11535
1.1115
1.10768
1.10357
1.09942
1.09505
1.09048
1.08546
1.08047
1.07511
1.06922
1.06255
1.05452
1.04558
1.03838
1.03255
1.02827
1.02317
1.0166
1.00807
1.00215
0.998352
0.994794
0.989367
0.981856
0.976784
0.974117
0.970645
0.964644
0.957854
0.954345
0.951631
0.946665
0.940061
0.93654
0.934025
0.929045
0.922547
0.919131
0.916168
0.910522
0.904574
0.901419
0.897523
0.891003
0.885727
0.882825
0.878029
0.870926
0.866625
0.863244
0.857355
0.850113
0.845391
0.841434
0.834853
0.828585
0.82443
0.819251
0.811706
0.805596
0.801457
0.795514
0.787507
0.782512
0.789193
0.786494
0.745148
0.72928
0.72593
0.725326
0.726537
0.728238
0.730158
0.733802
0.740023
0.743674
0.750846
0.757697
0.764815
0.774722
0.78256
0.794303
0.805153
0.8175
0.832075
0.845838
0.86183
0.878538
0.895903
0.914902
0.93378
0.954395
0.974989
0.996963
1.01934
1.04272
1.0668
1.09166
1.1173
1.14355
1.17049
1.19777
1.22537
1.25286
1.28007
1.30649
1.33183
1.35536
1.37654
1.39537
1.41071
1.42292
1.43142
1.43631
1.4379
1.43513
1.42897
1.41913
1.40537
1.38832
1.3674
1.34349
1.31692
1.28767
1.2569
1.22514
1.1926
1.16022
1.12789
1.09625
1.06567
1.03554
1.00751
0.979355
0.953932
0.928128
0.904824
0.88176
0.859823
0.840091
0.818498
0.80184
0.781913
0.766374
0.750457
0.732913
0.722366
0.707897
0.693981
0.685715
0.674585
0.662726
0.6557
0.64768
0.638959
0.632548
0.626441
0.618444
0.613834
0.610413
0.603363
0.597718
0.595396
0.593234
0.587834
0.582589
0.581147
0.579528
0.577198
0.572895
0.57024
0.570193
0.568765
0.566192
0.564705
0.565023
0.564302
0.562545
0.565648
0.719611
0.915244
0.92467
0.917798
0.915539
0.914942
0.914142
0.913005
0.911905
0.912272
0.914301
0.918015
0.921286
0.924109
0.926227
0.928274
0.931177
0.935687
0.941468
0.945326
0.947307
0.951017
0.956271
0.959705
0.963429
0.968246
0.972811
0.976987
0.981797
0.98723
0.992425
0.997402
1.00271
1.00848
1.01469
1.02113
1.02788
1.03482
1.042
1.04914
1.05626
1.06314
1.07002
1.07667
1.08313
1.08913
1.09472
1.09986
1.10463
1.10895
1.11289
1.11667
1.12067
1.12543
1.13125
1.13835
1.14836
1.15933
1.16974
1.17479
1.1543
1.17082
1.17403
1.16524
1.15353
1.14148
1.13588
1.12954
1.12342
1.1188
1.11469
1.11026
1.10526
1.1001
1.09482
1.08947
1.08398
1.0786
1.073
1.06746
1.06149
1.05527
1.04841
1.0404
1.0324
1.02629
1.02138
1.01674
1.01089
1.00343
0.997204
0.992958
0.989295
0.984348
0.977772
0.972769
0.9693
0.965589
0.959999
0.953995
0.950139
0.946852
0.942074
0.936389
0.932714
0.929407
0.924353
0.918705
0.915059
0.911408
0.905846
0.900504
0.896884
0.89255
0.886481
0.881598
0.87807
0.872886
0.86665
0.862082
0.857873
0.851984
0.845376
0.84078
0.836131
0.829756
0.823812
0.819206
0.813405
0.806539
0.800826
0.795969
0.789273
0.782822
0.789202
0.788216
0.745893
0.729139
0.727128
0.726191
0.726708
0.729545
0.731891
0.734683
0.740943
0.745338
0.751984
0.758684
0.766144
0.776206
0.784406
0.796069
0.807329
0.819601
0.83429
0.848514
0.864869
0.881799
0.899456
0.918788
0.938001
0.958947
0.979875
1.00216
1.02483
1.04844
1.0727
1.09761
1.12323
1.14926
1.17586
1.20257
1.22945
1.25597
1.28205
1.30717
1.33091
1.35288
1.37252
1.38971
1.40371
1.41474
1.42239
1.42676
1.42823
1.42559
1.41989
1.41085
1.39828
1.38259
1.36342
1.34124
1.31652
1.28928
1.26023
1.22999
1.19869
1.16738
1.13578
1.10469
1.07434
1.0443
1.01615
0.987748
0.961977
0.935737
0.911949
0.888372
0.865907
0.845557
0.823718
0.806579
0.785837
0.769743
0.754315
0.736421
0.724695
0.710192
0.696351
0.688108
0.676078
0.664232
0.657428
0.649981
0.640449
0.633214
0.627503
0.620516
0.615356
0.610839
0.604242
0.599988
0.596353
0.593068
0.588255
0.584614
0.582489
0.579774
0.576457
0.573455
0.572201
0.570737
0.568092
0.566719
0.566341
0.565222
0.563697
0.563055
0.566593
0.71953
0.913849
0.923814
0.918901
0.917574
0.915404
0.913041
0.911678
0.911852
0.913854
0.916407
0.918673
0.920597
0.922429
0.925047
0.928396
0.932994
0.937707
0.941286
0.943816
0.947209
0.952343
0.955961
0.959486
0.964078
0.968473
0.972549
0.977143
0.982331
0.987278
0.99217
0.99739
1.00309
1.00897
1.01506
1.02136
1.02802
1.03489
1.04201
1.04908
1.05615
1.06302
1.0699
1.07653
1.08305
1.08909
1.09464
1.09967
1.10438
1.10876
1.11283
1.1167
1.1208
1.12572
1.13185
1.13917
1.14834
1.15829
1.16807
1.1733
1.1567
1.16525
1.16726
1.16
1.15107
1.14318
1.13616
1.12855
1.12275
1.11862
1.115
1.11122
1.10686
1.10229
1.0971
1.09146
1.08537
1.07918
1.07278
1.06642
1.06015
1.05408
1.04783
1.04139
1.03447
1.02711
1.0207
1.01537
1.0104
1.00497
0.998641
0.992682
0.988009
0.98399
0.979349
0.97368
0.968638
0.964707
0.960669
0.955447
0.949921
0.945999
0.942405
0.937769
0.932538
0.928668
0.924922
0.919889
0.914707
0.910869
0.906843
0.901344
0.896295
0.89229
0.887782
0.882052
0.877341
0.873215
0.868042
0.8621
0.85724
0.852476
0.846641
0.840655
0.835901
0.830963
0.824668
0.818805
0.813531
0.807913
0.801512
0.795664
0.789938
0.78414
0.78927
0.788759
0.747314
0.729926
0.727563
0.727459
0.727516
0.730086
0.733097
0.736296
0.742095
0.746771
0.753748
0.760294
0.767714
0.777862
0.786487
0.797989
0.809623
0.822079
0.836892
0.851186
0.86796
0.885239
0.903185
0.922846
0.942402
0.963694
0.984987
1.00757
1.03053
1.05432
1.07872
1.10361
1.12914
1.15488
1.18105
1.20709
1.23311
1.25857
1.28341
1.30692
1.3292
1.3495
1.36764
1.38329
1.39605
1.406
1.41289
1.41676
1.41811
1.41559
1.41031
1.402
1.39051
1.3761
1.35857
1.33816
1.31524
1.28991
1.26268
1.23407
1.20417
1.17408
1.14335
1.11295
1.08297
1.05314
1.02494
0.99638
0.970283
0.943652
0.919387
0.895283
0.872261
0.851414
0.829201
0.811342
0.790129
0.773669
0.758098
0.739547
0.727319
0.713332
0.699167
0.690076
0.678008
0.666659
0.659535
0.651612
0.64157
0.634571
0.629514
0.621865
0.615847
0.611708
0.606286
0.601163
0.596421
0.593497
0.589706
0.585714
0.582665
0.579584
0.576921
0.57502
0.572794
0.570469
0.568686
0.568115
0.566681
0.564871
0.564333
0.564125
0.566948
0.717788
0.913796
0.925628
0.920369
0.917562
0.914293
0.912605
0.912378
0.913495
0.914901
0.91626
0.91767
0.919685
0.922367
0.926046
0.930182
0.933968
0.937214
0.940189
0.943731
0.948487
0.952298
0.955664
0.960006
0.964318
0.968292
0.972706
0.977589
0.982383
0.987157
0.992326
0.997794
1.00337
1.00902
1.01499
1.02127
1.02794
1.03482
1.04193
1.04902
1.05609
1.06295
1.06979
1.07646
1.08299
1.08898
1.09443
1.09939
1.10413
1.10863
1.11284
1.11672
1.12081
1.12576
1.13202
1.1394
1.14797
1.15654
1.16495
1.169
1.15513
1.15783
1.16088
1.15695
1.1504
1.14336
1.13444
1.1265
1.12092
1.11689
1.11334
1.10968
1.10554
1.1013
1.09659
1.09148
1.08592
1.08024
1.074
1.06733
1.06031
1.05346
1.04686
1.0407
1.03453
1.02828
1.02158
1.01516
1.00961
1.00462
0.999405
0.993769
0.988022
0.983314
0.979076
0.974652
0.96944
0.964414
0.960102
0.955813
0.950954
0.945944
0.941924
0.938062
0.933509
0.928601
0.924502
0.920418
0.915538
0.910677
0.906581
0.902212
0.896893
0.891949
0.887782
0.883129
0.87764
0.872865
0.868403
0.863175
0.857404
0.852245
0.847158
0.841556
0.835908
0.831037
0.825635
0.819487
0.813465
0.808226
0.802609
0.79632
0.790021
0.784962
0.790141
0.788894
0.748271
0.731335
0.728419
0.728376
0.729036
0.731048
0.733992
0.737592
0.74332
0.74815
0.755155
0.762075
0.769446
0.779539
0.788624
0.800114
0.811911
0.824627
0.839825
0.854257
0.871236
0.888849
0.907114
0.927086
0.946982
0.968561
0.990167
1.01298
1.03615
1.06003
1.08447
1.10924
1.13455
1.15987
1.18548
1.21075
1.23585
1.26015
1.2837
1.3058
1.32662
1.34536
1.36202
1.37625
1.38784
1.3968
1.403
1.40644
1.40764
1.40522
1.40034
1.3927
1.38222
1.36899
1.35295
1.33417
1.31301
1.28936
1.26402
1.23701
1.20853
1.1797
1.14995
1.12038
1.0909
1.06145
1.03333
1.00477
0.978466
0.95158
0.926912
0.902381
0.878884
0.857514
0.834728
0.816393
0.795082
0.777861
0.761659
0.743018
0.730454
0.716291
0.701422
0.692225
0.680396
0.668782
0.661201
0.653051
0.643105
0.636363
0.631019
0.622798
0.616764
0.613159
0.607561
0.601795
0.597197
0.594864
0.590715
0.586176
0.583177
0.58055
0.578348
0.575652
0.572889
0.571143
0.570053
0.568635
0.566695
0.565584
0.565411
0.564437
0.566686
0.717856
0.916442
0.926944
0.920131
0.916846
0.914438
0.913563
0.913461
0.913733
0.914396
0.915601
0.917537
0.920252
0.923636
0.926987
0.930191
0.933355
0.936638
0.940366
0.944774
0.948602
0.951942
0.956047
0.960288
0.964221
0.968443
0.97308
0.977685
0.982373
0.98737
0.992657
0.997938
1.00335
1.00899
1.01504
1.0214
1.0281
1.035
1.04214
1.04923
1.05627
1.06306
1.06982
1.07643
1.08287
1.08879
1.09423
1.0992
1.10396
1.1085
1.11278
1.11664
1.12067
1.1256
1.13193
1.13923
1.14709
1.1546
1.16174
1.16393
1.14995
1.15345
1.1573
1.15522
1.14945
1.14145
1.13352
1.12655
1.12097
1.11667
1.11278
1.10869
1.10433
1.09998
1.09532
1.09031
1.08499
1.0796
1.07379
1.06765
1.06103
1.05416
1.04714
1.04037
1.03395
1.02798
1.02205
1.01603
1.00989
1.00423
0.999014
0.994001
0.988859
0.983574
0.978754
0.97444
0.969981
0.965056
0.960003
0.955545
0.95123
0.946691
0.941955
0.937849
0.93381
0.929308
0.924493
0.920262
0.916042
0.911277
0.906515
0.902154
0.897601
0.892449
0.88768
0.883273
0.878492
0.873147
0.868341
0.863586
0.858284
0.85254
0.847202
0.842162
0.836705
0.83125
0.825902
0.820332
0.814208
0.808515
0.803065
0.797399
0.790735
0.785383
0.790891
0.789687
0.748858
0.732446
0.729648
0.729311
0.730277
0.732432
0.735207
0.738818
0.744618
0.749769
0.75654
0.763716
0.771325
0.781393
0.790844
0.802363
0.814356
0.827247
0.84278
0.857539
0.874741
0.892634
0.911243
0.931531
0.951774
0.973644
0.995561
1.01857
1.04194
1.06586
1.09029
1.11486
1.13986
1.16465
1.18957
1.21394
1.23799
1.26112
1.28318
1.30393
1.32321
1.34046
1.35573
1.36864
1.37915
1.3872
1.39277
1.39583
1.39686
1.39453
1.39003
1.38302
1.37344
1.36133
1.34665
1.32942
1.30992
1.28798
1.26435
1.23901
1.21209
1.18462
1.15601
1.12742
1.09861
1.06969
1.04179
1.01332
0.986871
0.959759
0.934728
0.909787
0.885832
0.863839
0.840604
0.821811
0.800237
0.782282
0.765561
0.747097
0.733756
0.71916
0.703922
0.694796
0.682717
0.670735
0.663058
0.654983
0.645017
0.63792
0.632309
0.62422
0.618318
0.614369
0.608575
0.602822
0.598817
0.59607
0.591386
0.587023
0.584297
0.58196
0.579139
0.575994
0.573648
0.572301
0.570657
0.568926
0.567413
0.566599
0.565877
0.56464
0.566879
0.718585
0.918285
0.926839
0.919882
0.917341
0.915248
0.914046
0.913394
0.913341
0.914295
0.915996
0.918399
0.921053
0.9238
0.926698
0.929811
0.93321
0.937066
0.941114
0.944823
0.948323
0.952218
0.956369
0.960278
0.964384
0.968765
0.973218
0.977752
0.982599
0.987648
0.992773
0.997973
1.00344
1.00919
1.01528
1.02162
1.02829
1.03517
1.04226
1.04928
1.05627
1.06303
1.06974
1.07627
1.08265
1.08855
1.09399
1.09893
1.1036
1.10809
1.11242
1.11635
1.12038
1.12526
1.13156
1.1387
1.14562
1.15228
1.15869
1.15978
1.14639
1.15057
1.15395
1.15175
1.14656
1.13905
1.1335
1.12711
1.12164
1.11736
1.11332
1.10903
1.10456
1.10007
1.09525
1.09007
1.08462
1.07911
1.07326
1.06719
1.06078
1.05431
1.0476
1.04083
1.03411
1.02781
1.02183
1.01616
1.01042
1.00461
0.998985
0.993808
0.988924
0.984095
0.979094
0.974345
0.969844
0.965376
0.960536
0.955608
0.951132
0.946897
0.942501
0.93797
0.93376
0.929587
0.925062
0.920359
0.916046
0.911713
0.907025
0.902232
0.897693
0.893033
0.88812
0.883359
0.878752
0.87386
0.868671
0.863734
0.858694
0.853273
0.847599
0.842425
0.837384
0.83198
0.826299
0.82072
0.814998
0.809292
0.803542
0.798039
0.791697
0.786224
0.791433
0.790503
0.749958
0.733531
0.730834
0.73048
0.731437
0.733646
0.736682
0.740339
0.746112
0.751513
0.758142
0.765533
0.773364
0.783528
0.793246
0.804714
0.817061
0.830165
0.845849
0.860913
0.878458
0.896637
0.915551
0.936126
0.956681
0.978772
1.00094
1.02407
1.04753
1.0714
1.09571
1.11998
1.14456
1.16874
1.1929
1.21634
1.2393
1.26107
1.28188
1.30124
1.31907
1.33491
1.34885
1.36055
1.37004
1.37727
1.38226
1.38499
1.38584
1.38361
1.37946
1.37302
1.36427
1.35319
1.33977
1.32398
1.30603
1.28577
1.26371
1.2401
1.2147
1.18859
1.16116
1.13361
1.10555
1.07728
1.0497
1.02148
0.995003
0.967802
0.942517
0.917268
0.892921
0.870417
0.846843
0.827375
0.805551
0.787063
0.769866
0.751151
0.737189
0.722498
0.707074
0.697315
0.685124
0.673008
0.665326
0.657129
0.646859
0.639582
0.633959
0.62628
0.619786
0.615468
0.609872
0.604263
0.600074
0.596974
0.592343
0.58821
0.585349
0.58282
0.579794
0.576835
0.57467
0.573066
0.571197
0.569646
0.568269
0.567167
0.566357
0.565264
0.567363
0.718663
0.91875
0.927235