/*--------------------------------*- C++ -*----------------------------------*\
| =========                 |                                                 |
| \\      /  F ield         | OpenFOAM: The Open Source CFD Toolbox           |
|  \\    /   O peration     | Version:  4.x                                   |
|   \\  /    A nd           | Web:      www.OpenFOAM.org                      |
|    \\/     M anipulation  |                                                 |
\*---------------------------------------------------------------------------*/
FoamFile
{
    version     2.0;
    format      ascii;
    class       volScalarField;
    location    "51";
    object      rho;
}
// * * * * * * * * * * * * * * * * * * * * * * * * * * * * * * * * * * * * * //

dimensions      [1 -3 0 0 0 0 0];

internalField   nonuniform List<scalar> 
24651
(
1.38383
1.57979
1.45082
1.52466
1.51523
1.51313
1.51102
1.50801
1.50509
1.50195
1.49881
1.49511
1.49088
1.48601
1.48121
1.47628
1.4716
1.46656
1.46144
1.45502
1.44816
1.43924
1.43039
1.4234
1.41843
1.41604
1.41064
1.40266
1.39366
1.3882
1.38686
1.38344
1.37643
1.36801
1.36412
1.36377
1.35953
1.35064
1.34492
1.34342
1.34056
1.33321
1.32717
1.32551
1.3227
1.31497
1.30883
1.30748
1.30397
1.29545
1.28992
1.28889
1.284
1.275
1.27062
1.2691
1.26202
1.25469
1.25156
1.24752
1.23959
1.23208
1.22918
1.22393
1.21514
1.209
1.20597
1.19892
1.19003
1.18447
1.17989
1.17176
1.16422
1.17279
1.16965
1.12352
1.10565
1.10336
1.10148
1.10198
1.10464
1.10562
1.10839
1.11534
1.11831
1.12597
1.1323
1.1398
1.14966
1.15715
1.16998
1.17985
1.19193
1.20518
1.21944
1.23342
1.2489
1.26519
1.28237
1.29894
1.31719
1.33519
1.35454
1.37428
1.39484
1.41588
1.43803
1.46098
1.48516
1.51043
1.5371
1.56505
1.59452
1.62538
1.65732
1.69005
1.71805
1.75129
1.78114
1.80743
1.82941
1.84527
1.85615
1.85941
1.85393
1.84285
1.82533
1.80116
1.77111
1.73603
1.69655
1.66231
1.62226
1.58266
1.54437
1.50793
1.47369
1.44134
1.41096
1.38271
1.35618
1.33167
1.30808
1.28617
1.26446
1.24483
1.22539
1.2075
1.19067
1.17099
1.1572
1.14034
1.12436
1.10961
1.09479
1.08391
1.06853
1.05622
1.04691
1.03701
1.02297
1.01773
1.00814
1.00091
0.99223
0.986206
0.97935
0.974714
0.969915
0.960498
0.95773
0.954759
0.95056
0.944885
0.940673
0.939401
0.93633
0.931756
0.928129
0.927616
0.926527
0.922929
0.921088
0.922505
0.920941
0.918155
0.917561
0.925648
1.09817
1.28307
1.30515
1.30019
1.2978
1.29763
1.29764
1.29694
1.29546
1.29613
1.29825
1.30259
1.30614
1.30915
1.31086
1.31251
1.31599
1.3209
1.32698
1.33105
1.33283
1.3361
1.34092
1.3453
1.3488
1.35278
1.35744
1.36221
1.36669
1.37148
1.37667
1.382
1.38744
1.3929
1.39867
1.40479
1.41132
1.41806
1.42505
1.432
1.43896
1.44575
1.45249
1.45885
1.46502
1.47071
1.47595
1.48066
1.48493
1.48876
1.49224
1.49542
1.49795
1.50058
1.50311
1.50652
1.51075
1.50917
1.51677
1.44283
1.72456
1.66376
1.48294
1.51958
1.52263
1.52042
1.51741
1.51503
1.51243
1.50983
1.50713
1.5041
1.49953
1.49421
1.48823
1.48157
1.47469
1.46804
1.46151
1.45477
1.45012
1.44711
1.44373
1.43836
1.42816
1.41619
1.40797
1.40672
1.40661
1.40249
1.39029
1.38084
1.37856
1.37994
1.37642
1.36444
1.35651
1.35755
1.35765
1.34871
1.33852
1.33703
1.33852
1.33123
1.32117
1.31957
1.32052
1.31215
1.30238
1.30216
1.30229
1.29166
1.28299
1.28363
1.28184
1.26988
1.26399
1.26576
1.25962
1.24849
1.24469
1.24363
1.23629
1.22614
1.22311
1.2206
1.21122
1.20261
1.19937
1.19537
1.18576
1.17748
1.17364
1.16741
1.17184
1.17166
1.1261
1.10486
1.1038
1.10414
1.10173
1.10512
1.10831
1.11069
1.11727
1.12094
1.12852
1.13328
1.14035
1.15229
1.15857
1.1714
1.1814
1.19486
1.20759
1.2217
1.23708
1.25268
1.26888
1.28667
1.30396
1.3227
1.34117
1.361
1.38106
1.40207
1.42358
1.4462
1.46959
1.49417
1.51974
1.54659
1.5745
1.60366
1.63378
1.66476
1.69535
1.72462
1.75254
1.77894
1.80309
1.82332
1.83876
1.85305
1.85615
1.85055
1.8362
1.81928
1.79704
1.76969
1.73936
1.70602
1.67016
1.63302
1.59496
1.55789
1.52206
1.48799
1.45562
1.42498
1.39624
1.36889
1.34362
1.31901
1.2966
1.27421
1.25389
1.23368
1.21427
1.19641
1.17735
1.16299
1.1437
1.12931
1.11378
1.09859
1.08791
1.07068
1.0596
1.05064
1.03856
1.02492
1.02128
1.01172
1.0031
0.992952
0.989842
0.982411
0.975052
0.970567
0.965031
0.959733
0.953688
0.949958
0.948701
0.943258
0.938596
0.933777
0.932182
0.93311
0.929012
0.923796
0.922978
0.925741
0.923113
0.917378
0.918206
0.922347
0.928286
1.09523
1.27663
1.30232
1.30167
1.30229
1.29928
1.29471
1.29328
1.29544
1.30064
1.30379
1.30443
1.3034
1.30354
1.30738
1.31383
1.32188
1.32579
1.32649
1.32625
1.33147
1.33874
1.34216
1.34417
1.34845
1.35361
1.35793
1.36172
1.36662
1.37197
1.3771
1.38192
1.38703
1.39268
1.39873
1.405
1.41158
1.41835
1.42535
1.43231
1.43926
1.44601
1.4527
1.459
1.46515
1.4708
1.47605
1.48078
1.48508
1.48892
1.49241
1.49559
1.49813
1.50084
1.50307
1.50668
1.5073
1.51556
1.48864
1.57701
1.43494
1.50537
1.55498
1.52062
1.53075
1.52189
1.51604
1.51258
1.50996
1.50753
1.50515
1.50279
1.4999
1.49685
1.49324
1.48898
1.48312
1.47604
1.46745
1.45827
1.44871
1.4403
1.43583
1.43407
1.43246
1.42671
1.41368
1.40272
1.39827
1.39972
1.39866
1.38785
1.37613
1.37196
1.37455
1.37323
1.36133
1.35156
1.35201
1.35352
1.34512
1.33426
1.33246
1.33467
1.32738
1.31681
1.31529
1.31675
1.3076
1.29763
1.29819
1.29783
1.28661
1.27798
1.27995
1.27694
1.26471
1.25971
1.26134
1.25352
1.24283
1.23858
1.2382
1.22943
1.21993
1.21814
1.2149
1.20379
1.19598
1.19404
1.18909
1.17797
1.17077
1.16866
1.17292
1.16964
1.12736
1.10777
1.10277
1.10551
1.10397
1.10452
1.10785
1.11301
1.11856
1.12219
1.13059
1.13629
1.14196
1.15422
1.16086
1.17309
1.18452
1.19783
1.21013
1.22385
1.24003
1.25635
1.2727
1.2906
1.30804
1.32726
1.34651
1.3668
1.38705
1.40846
1.43036
1.4534
1.47717
1.50213
1.52801
1.55507
1.58303
1.61199
1.64156
1.67161
1.70114
1.73192
1.7605
1.78673
1.80966
1.82848
1.84256
1.85133
1.85377
1.8496
1.84023
1.82494
1.80451
1.77908
1.74906
1.71582
1.67889
1.64314
1.6065
1.57031
1.53485
1.50075
1.46813
1.43702
1.40779
1.37973
1.35387
1.32851
1.30554
1.28261
1.26147
1.2407
1.22074
1.20275
1.18336
1.16671
1.14675
1.1333
1.11804
1.10046
1.08995
1.07474
1.06265
1.0532
1.0407
1.02888
1.02302
1.01186
1.00316
0.996739
0.991336
0.981425
0.973903
0.972849
0.966054
0.957476
0.95384
0.952889
0.949983
0.940401
0.937156
0.93559
0.936071
0.933466
0.925501
0.924356
0.927434
0.926459
0.91943
0.918743
0.923136
0.922563
0.924372
1.09297
1.28041
1.30898
1.30567
1.30027
1.29465
1.29427
1.29797
1.3018
1.3013
1.29951
1.298
1.30099
1.30742
1.31517
1.32066
1.32125
1.32032
1.32132
1.32869
1.33729
1.33906
1.3398
1.34449
1.35008
1.35387
1.35725
1.36211
1.36748
1.37217
1.37665
1.38184
1.38751
1.39334
1.39934
1.40547
1.41193
1.4186
1.42551
1.43239
1.43926
1.44602
1.45281
1.45916
1.46537
1.47112
1.47641
1.48115
1.48543
1.48928
1.49278
1.49602
1.49876
1.50159
1.5039
1.50818
1.51345
1.51901
1.52374
1.51252
1.56178
1.55256
1.55175
1.54164
1.53282
1.52022
1.5142
1.51098
1.50725
1.50364
1.50025
1.49697
1.49356
1.49055
1.48731
1.48382
1.48008
1.4762
1.47114
1.46507
1.45643
1.44539
1.43506
1.42771
1.42485
1.4251
1.41992
1.40965
1.39787
1.39207
1.39341
1.39156
1.38348
1.37195
1.36699
1.36994
1.36711
1.35669
1.3478
1.34738
1.3477
1.34013
1.33022
1.32906
1.32962
1.32204
1.3125
1.31181
1.31109
1.30213
1.29405
1.29509
1.29175
1.28092
1.27493
1.27636
1.27059
1.25934
1.25679
1.25558
1.24768
1.23768
1.235
1.23226
1.22279
1.21532
1.21424
1.20837
1.19785
1.19102
1.18915
1.18216
1.17146
1.16804
1.17588
1.17037
1.12723
1.10964
1.10501
1.10559
1.10628
1.10697
1.10807
1.1141
1.12098
1.12282
1.13174
1.13849
1.14581
1.1571
1.16395
1.17635
1.18744
1.20081
1.21422
1.22772
1.24367
1.26013
1.27676
1.29494
1.31285
1.33241
1.35166
1.37232
1.39276
1.41455
1.43675
1.46011
1.48415
1.50935
1.53542
1.56261
1.59063
1.61949
1.64871
1.67789
1.70642
1.73621
1.76279
1.78741
1.80862
1.82631
1.8397
1.84764
1.84977
1.84604
1.83733
1.82286
1.80376
1.78047
1.75234
1.72165
1.68654
1.65215
1.61676
1.58121
1.54603
1.51196
1.47924
1.44788
1.41836
1.38982
1.36355
1.33763
1.31416
1.29076
1.26936
1.24805
1.22753
1.20892
1.18844
1.17195
1.15264
1.13889
1.12125
1.10336
1.09404
1.07839
1.06464
1.05547
1.04456
1.03117
1.02386
1.01258
1.00576
0.998977
0.991773
0.98184
0.976724
0.975177
0.965365
0.958372
0.957798
0.955847
0.949858
0.940769
0.940761
0.940185
0.937276
0.931237
0.926894
0.929279
0.927922
0.923886
0.921431
0.923981
0.923351
0.91956
0.924175
1.10146
1.29455
1.31007
1.302
1.2972
1.29726
1.30086
1.30102
1.29846
1.29558
1.29649
1.30101
1.30836
1.31367
1.31535
1.31514
1.31435
1.31838
1.32685
1.33526
1.33585
1.33532
1.3407
1.34703
1.35012
1.35299
1.35788
1.36317
1.36745
1.37172
1.37704
1.38271
1.38823
1.3936
1.39922
1.40521
1.41166
1.41834
1.4253
1.43224
1.4392
1.44601
1.45282
1.45947
1.46582
1.47158
1.47685
1.48163
1.48602
1.48995
1.49352
1.49681
1.49971
1.50284
1.5054
1.50942
1.51687
1.52646
1.52858
1.54021
1.52165
1.5542
1.5643
1.55009
1.53648
1.52415
1.52037
1.51649
1.51183
1.50744
1.50323
1.49903
1.49426
1.48933
1.48421
1.47913
1.47422
1.46979
1.46614
1.463
1.45778
1.45123
1.44203
1.43075
1.42188
1.41743
1.41807
1.4134
1.40513
1.39357
1.38741
1.38843
1.38598
1.37881
1.36796
1.36368
1.36593
1.36186
1.35193
1.34435
1.34491
1.34283
1.33493
1.32691
1.32715
1.32482
1.31637
1.30897
1.31
1.30623
1.29649
1.29067
1.29154
1.28631
1.27582
1.27209
1.27164
1.26442
1.25553
1.25462
1.25043
1.24187
1.23346
1.23257
1.22692
1.21684
1.21171
1.20938
1.20226
1.19183
1.18815
1.18369
1.17517
1.16721
1.17679
1.17369
1.12688
1.11063
1.10808
1.10591
1.10747
1.11024
1.11043
1.1143
1.12259
1.12412
1.13251
1.14013
1.1484
1.15943
1.16637
1.17891
1.18942
1.20281
1.21726
1.2313
1.24723
1.26369
1.28066
1.29918
1.31737
1.33728
1.35673
1.37749
1.39834
1.42045
1.443
1.46666
1.49099
1.51637
1.54252
1.56961
1.59741
1.62588
1.65459
1.68317
1.71142
1.74021
1.76538
1.78836
1.80793
1.82391
1.83553
1.84216
1.84405
1.84083
1.8334
1.82071
1.80328
1.78195
1.75594
1.72697
1.6935
1.65979
1.62539
1.59069
1.55615
1.52245
1.48983
1.45833
1.42853
1.39953
1.37282
1.3463
1.32236
1.29836
1.27654
1.25487
1.23396
1.21489
1.19376
1.17807
1.15835
1.14288
1.12486
1.10804
1.0986
1.08105
1.06635
1.0583
1.0474
1.0324
1.02555
1.01543
1.00927
1.0005
0.992074
0.984681
0.981194
0.976491
0.965409
0.962301
0.960354
0.957041
0.949282
0.944626
0.94446
0.94138
0.937753
0.931356
0.931579
0.931053
0.927275
0.923927
0.926016
0.925226
0.921966
0.919878
0.927564
1.10295
1.2957
1.30553
1.3009
1.30123
1.30221
1.30068
1.29671
1.29484
1.29665
1.3017
1.30689
1.30974
1.30993
1.3093
1.3112
1.31627
1.32468
1.33078
1.33197
1.33146
1.33727
1.34418
1.34647
1.34901
1.35394
1.35908
1.36294
1.36713
1.37245
1.37801
1.38299
1.3879
1.39326
1.39919
1.40544
1.41201
1.4188
1.42583
1.43283
1.43983
1.44659
1.45334
1.4599
1.46618
1.47194
1.47733
1.48224
1.48671
1.49066
1.49422
1.49756
1.50063
1.50412
1.50752
1.51171
1.51934
1.52956
1.53842
1.54384
1.53454
1.55114
1.56183
1.55134
1.53807
1.53106
1.52527
1.51942
1.51523
1.51167
1.50844
1.50486
1.50023
1.49459
1.48813
1.4817
1.4752
1.46898
1.46301
1.4577
1.4541
1.45052
1.44443
1.43728
1.42644
1.41655
1.41195
1.41186
1.40758
1.4001
1.38906
1.38353
1.38387
1.38091
1.37419
1.36428
1.36079
1.36171
1.3568
1.34747
1.34131
1.34187
1.33833
1.33011
1.32396
1.3243
1.32024
1.3113
1.30604
1.30638
1.30126
1.29154
1.28815
1.28705
1.28062
1.27157
1.27024
1.26709
1.2585
1.25178
1.25034
1.245
1.23573
1.23021
1.22784
1.22141
1.21211
1.20852
1.20378
1.19628
1.18788
1.18371
1.17757
1.16913
1.1765
1.17628
1.12895
1.11006
1.10954
1.10811
1.10696
1.11185
1.11428
1.11599
1.12392
1.12782
1.13432
1.14118
1.14987
1.16159
1.16835
1.18101
1.19215
1.20543
1.21961
1.23423
1.25065
1.26732
1.28452
1.30331
1.32172
1.34175
1.36144
1.38241
1.40365
1.42598
1.44883
1.47268
1.49725
1.52276
1.54899
1.57599
1.6035
1.63142
1.65937
1.68706
1.71434
1.7412
1.76476
1.78657
1.80489
1.81961
1.83008
1.83603
1.83778
1.8348
1.82793
1.81638
1.8002
1.78018
1.75578
1.72878
1.69782
1.66557
1.63247
1.59887
1.56511
1.53187
1.4994
1.46786
1.43787
1.40857
1.38153
1.35457
1.33023
1.30561
1.28334
1.26122
1.23994
1.22063
1.19963
1.18318
1.16263
1.1466
1.12986
1.11289
1.10146
1.08372
1.06993
1.06252
1.04954
1.03454
1.02927
1.02083
1.01137
1.00098
0.994836
0.989295
0.983043
0.976428
0.96871
0.965644
0.961311
0.956115
0.95109
0.948167
0.94571
0.941312
0.936616
0.934714
0.934072
0.93122
0.926551
0.927267
0.927792
0.92479
0.921437
0.923536
0.929758
1.10069
1.29136
1.30675
1.30571
1.30472
1.30193
1.29708
1.29565
1.2976
1.30205
1.30475
1.30659
1.30574
1.30617
1.30928
1.31508
1.32231
1.32682
1.32867
1.32828
1.33349
1.34077
1.34322
1.34534
1.35028
1.35518
1.35874
1.36278
1.36802
1.37322
1.37785
1.38263
1.38808
1.39388
1.39997
1.40623
1.41276
1.41948
1.42643
1.43333
1.44022
1.44694
1.45372
1.46013
1.46647
1.4724
1.47786
1.48275
1.48719
1.49115
1.49481
1.49832
1.50165
1.50542
1.50962
1.51485
1.5231
1.53223
1.54097
1.54494
1.53279
1.54485
1.55615
1.55165
1.54153
1.53372
1.52463
1.51795
1.51348
1.51028
1.5075
1.50471
1.50124
1.49731
1.49252
1.48712
1.48059
1.47332
1.46539
1.45771
1.45108
1.446
1.44233
1.43743
1.43112
1.42195
1.41214
1.40705
1.40561
1.40172
1.39511
1.38524
1.37987
1.37921
1.37597
1.36955
1.36078
1.35771
1.35701
1.35184
1.34301
1.3385
1.3382
1.33384
1.32558
1.32126
1.32048
1.31546
1.30679
1.3035
1.30199
1.29602
1.28762
1.28527
1.28238
1.27496
1.26829
1.26692
1.26204
1.25308
1.24784
1.24534
1.23936
1.23055
1.22634
1.22284
1.21552
1.20753
1.20334
1.19834
1.19032
1.18256
1.17822
1.17228
1.17659
1.17699
1.13204
1.11133
1.1096
1.11045
1.10799
1.11177
1.11615
1.11948
1.12563
1.13022
1.1378
1.14378
1.15155
1.16365
1.17063
1.18326
1.19536
1.20843
1.2225
1.23695
1.25378
1.27075
1.2881
1.30708
1.32567
1.34586
1.36589
1.38724
1.40888
1.43151
1.4547
1.47876
1.5035
1.52901
1.55518
1.58195
1.60913
1.63652
1.66379
1.69064
1.71682
1.74183
1.76389
1.78418
1.80081
1.81418
1.8236
1.829
1.83064
1.82784
1.82143
1.81091
1.7961
1.77784
1.75519
1.73015
1.70147
1.67077
1.63895
1.60641
1.57347
1.54083
1.50869
1.4773
1.44723
1.41767
1.39027
1.3628
1.33797
1.31275
1.28993
1.26726
1.24553
1.22595
1.20461
1.18739
1.16633
1.15105
1.13466
1.11594
1.10404
1.08784
1.07456
1.06505
1.05196
1.03875
1.03263
1.02328
1.01186
1.00336
0.999081
0.991198
0.982808
0.977814
0.972901
0.966882
0.96069
0.956917
0.954616
0.949401
0.944922
0.940593
0.938176
0.937961
0.934596
0.930041
0.928821
0.93024
0.927803
0.923675
0.924237
0.92599
0.930046
1.09708
1.2935
1.31293
1.30871
1.30498
1.2996
1.29759
1.29937
1.3017
1.30315
1.30389
1.30323
1.30445
1.3082
1.31422
1.31936
1.32311
1.3248
1.32537
1.33005
1.33717
1.3403
1.34197
1.34681
1.35149
1.35478
1.35866
1.3637
1.36863
1.37298
1.3778
1.38322
1.38896
1.39459
1.40034
1.40636
1.41279
1.41944
1.42634
1.43323
1.44014
1.44693
1.45377
1.46043
1.46694
1.47287
1.47823
1.48307
1.48758
1.4917
1.49549
1.4991
1.50262
1.5066
1.51125
1.51726
1.5274
1.53649
1.54335
1.54337
1.52662
1.54181
1.55516
1.55545
1.5463
1.53332
1.52302
1.51624
1.51146
1.50784
1.50491
1.50204
1.49867
1.49514
1.49119
1.48649
1.48133
1.47598
1.46986
1.46245
1.45339
1.44545
1.4392
1.43454
1.43052
1.42499
1.41722
1.40778
1.40217
1.39961
1.39607
1.39007
1.38125
1.3762
1.37444
1.37121
1.36498
1.35728
1.35407
1.35211
1.34696
1.3393
1.33561
1.33402
1.32923
1.32177
1.31818
1.31604
1.31056
1.30325
1.30054
1.29744
1.29077
1.284
1.28183
1.27775
1.27
1.26475
1.26247
1.25674
1.24845
1.2435
1.24009
1.23363
1.22589
1.22214
1.21744
1.20944
1.20236
1.19824
1.19277
1.18397
1.17741
1.17347
1.17861
1.17644
1.13342
1.11443
1.11024
1.11151
1.11133
1.11279
1.11635
1.12147
1.12743
1.13133
1.13978
1.14678
1.15404
1.16539
1.1733
1.18587
1.19776
1.21092
1.22573
1.23996
1.25666
1.27386
1.29143
1.31059
1.32948
1.35001
1.37038
1.39207
1.41404
1.43694
1.4604
1.48461
1.50949
1.53495
1.56099
1.58739
1.61408
1.64073
1.66713
1.69289
1.71782
1.74107
1.76189
1.78065
1.79588
1.80805
1.81654
1.82142
1.82295
1.82032
1.81436
1.80471
1.79111
1.77426
1.75334
1.72983
1.70328
1.67434
1.64401
1.61276
1.58082
1.549
1.51732
1.48621
1.45616
1.42646
1.39881
1.37095
1.34572
1.31998
1.29664
1.27341
1.25115
1.23116
1.20914
1.19154
1.17062
1.15505
1.13803
1.11871
1.10744
1.0921
1.07706
1.06715
1.05493
1.04204
1.03419
1.02447
1.01341
1.00705
1.00101
0.991033
0.983837
0.980951
0.974466
0.966511
0.961811
0.960457
0.956057
0.948743
0.945417
0.942782
0.942074
0.938869
0.93366
0.931683
0.932335
0.930825
0.926805
0.925746
0.927229
0.926128
0.928607
1.0992
1.30293
1.3156
1.30861
1.30345
1.30061
1.30149
1.30207
1.30234
1.30175
1.30163
1.30337
1.30755
1.31246
1.31609
1.31928
1.32079
1.32261
1.32706
1.33378
1.33747
1.33886
1.34323
1.34798
1.35115
1.35482
1.35968
1.36428
1.36848
1.37324
1.37872
1.38408
1.38922
1.39455
1.40035
1.4065
1.41304
1.41979
1.42679
1.43377
1.44075
1.44755
1.45434
1.46103
1.46745
1.47324
1.47858
1.48351
1.48815
1.49234
1.49611
1.49969
1.50335
1.50762
1.51273
1.51917
1.52956
1.53988
1.54603
1.54413
1.52331
1.54378
1.55705
1.55779
1.54749
1.53257
1.5243
1.51818
1.51247
1.50802
1.50433
1.50069
1.49673
1.49274
1.48853
1.48412
1.47929
1.47447
1.46926
1.46352
1.45705
1.44923
1.44048
1.43345
1.42774
1.42357
1.41852
1.41204
1.40358
1.39772
1.39399
1.39043
1.38504
1.37755
1.37252
1.36992
1.36643
1.36045
1.35362
1.35014
1.34742
1.34244
1.33578
1.33226
1.32973
1.32468
1.31805
1.31461
1.31159
1.30586
1.29979
1.29662
1.29262
1.28595
1.28056
1.27766
1.27277
1.26546
1.26106
1.25756
1.25145
1.24388
1.23901
1.23493
1.22813
1.22162
1.21734
1.21195
1.20401
1.19754
1.19317
1.18691
1.1784
1.17311
1.18035
1.17776
1.13319
1.11604
1.11248
1.11187
1.11332
1.11543
1.11773
1.12191
1.12888
1.13289
1.14081
1.14843
1.15628
1.16706
1.17558
1.18821
1.19985
1.21298
1.22837
1.24282
1.2595
1.27681
1.29469
1.31415
1.33337
1.35427
1.37505
1.3971
1.4194
1.44257
1.46627
1.49058
1.5155
1.54084
1.56668
1.59267
1.6188
1.64466
1.67009
1.69464
1.71805
1.73968
1.75906
1.77621
1.79013
1.80118
1.80885
1.81325
1.81468
1.81219
1.80664
1.79775
1.78529
1.7698
1.75071
1.72879
1.70431
1.67718
1.64846
1.6186
1.58777
1.55686
1.52576
1.49506
1.46515
1.43545
1.40759
1.3794
1.35374
1.3275
1.30363
1.27983
1.25704
1.23643
1.21374
1.19615
1.17496
1.15834
1.14122
1.12215
1.11056
1.09463
1.07912
1.06984
1.05731
1.0439
1.0358
1.02648
1.01639
1.00894
1.00181
0.992388
0.987006
0.982916
0.974544
0.967894
0.96514
0.962494
0.956069
0.949865
0.948159
0.946222
0.943417
0.938306
0.93509
0.934979
0.933182
0.930107
0.92831
0.928646
0.927702
0.925529
0.929081
1.10149
1.30727
1.31484
1.30765
1.305
1.30422
1.30325
1.30206
1.30086
1.30116
1.30315
1.30688
1.31016
1.31299
1.31516
1.31716
1.32007
1.32458
1.33039
1.33421
1.33611
1.33961
1.34464
1.34783
1.35134
1.35596
1.36035
1.3644
1.36906
1.37436
1.37944
1.38431
1.38951
1.39515
1.40123
1.40753
1.41413
1.4209
1.4279
1.43486
1.44179
1.4485
1.4552
1.46168
1.46796
1.47377
1.47917
1.48413
1.48872
1.49287
1.49664
1.50027
1.50409
1.50865
1.51419
1.52091
1.53053
1.54077
1.54698
1.54568
1.52451
1.54405
1.55589
1.55499
1.54538
1.53333
1.5279
1.52188
1.51602
1.51158
1.50764
1.50337
1.49856
1.4936
1.48851
1.48336
1.47805
1.47284
1.46742
1.46206
1.45625
1.45017
1.4435
1.43565
1.42781
1.42183
1.41703
1.41242
1.40664
1.39923
1.39306
1.38885
1.38523
1.38032
1.37376
1.36879
1.36537
1.36165
1.35606
1.35003
1.34619
1.3429
1.33811
1.33236
1.32868
1.32532
1.32019
1.31445
1.31078
1.30707
1.30141
1.29597
1.29231
1.28788
1.28167
1.27672
1.27315
1.26785
1.2614
1.25669
1.25231
1.2462
1.23931
1.23459
1.22983
1.22322
1.21704
1.21225
1.20621
1.19894
1.1929
1.18779
1.18079
1.17393
1.18087
1.18027
1.1345
1.11638
1.11429
1.11333
1.114
1.11734
1.12015
1.12333
1.13029
1.13515
1.14245
1.14985
1.15799
1.16885
1.17768
1.19016
1.20213
1.21511
1.23056
1.24542
1.26243
1.27995
1.29813
1.31794
1.33753
1.35878
1.37989
1.40222
1.4248
1.44816
1.47202
1.49635
1.52122
1.54632
1.57179
1.59722
1.62264
1.64756
1.67193
1.69526
1.7172
1.73739
1.75538
1.77104
1.78377
1.79377
1.80069
1.80463
1.80596
1.80358
1.79843
1.79026
1.77885
1.76458
1.74707
1.72673
1.70393
1.67868
1.65158
1.62317
1.59356
1.56372
1.53336
1.50326
1.47364
1.44409
1.41617
1.38778
1.36183
1.33519
1.31087
1.28657
1.26326
1.242
1.21904
1.20092
1.17887
1.16167
1.1451
1.12574
1.11299
1.09713
1.08183
1.07264
1.05923
1.04592
1.03814
1.02957
1.0186
1.01026
1.00361
0.995416
0.98932
0.983975
0.976171
0.971183
0.966786
0.962824
0.957105
0.952833
0.950292
0.947024
0.943103
0.93951
0.937969
0.936097
0.932882
0.931173
0.930684
0.929267
0.927409
0.926541
0.930656
1.10203
1.30665
1.31473
1.30955
1.30799
1.30558
1.30298
1.30141
1.30143
1.30336
1.30588
1.30809
1.31001
1.31182
1.31442
1.31773
1.32233
1.32706
1.33062
1.33312
1.33639
1.34137
1.34479
1.34814
1.35257
1.35683
1.36079
1.36527
1.37035
1.3752
1.38
1.38513
1.39073
1.3965
1.40248
1.40866
1.41518
1.42191
1.42885
1.43575
1.44263
1.4493
1.45599
1.46243
1.46874
1.47458
1.47993
1.48476
1.48929
1.49349
1.49738
1.50108
1.505
1.50969
1.51551
1.52237
1.53111
1.54023
1.5459
1.5447
1.5275
1.53956
1.55002
1.55026
1.54315
1.53514
1.52833
1.52114
1.5156
1.51162
1.50814
1.50451
1.50034
1.49593
1.49094
1.48548
1.47958
1.4736
1.46739
1.46123
1.45513
1.44925
1.44315
1.43685
1.43009
1.42285
1.41654
1.4113
1.4064
1.40101
1.39471
1.38881
1.38419
1.38021
1.37559
1.36994
1.36493
1.36103
1.35698
1.35176
1.34621
1.34231
1.33869
1.33403
1.32875
1.32485
1.32105
1.31595
1.3107
1.30682
1.30274
1.29714
1.29202
1.28794
1.28337
1.27751
1.27274
1.2685
1.26318
1.25702
1.25199
1.24703
1.24099
1.2348
1.22991
1.22484
1.2183
1.2122
1.20667
1.2008
1.19404
1.18791
1.18194
1.17585
1.18146
1.18147
1.13655
1.11772
1.1152
1.11516
1.11536
1.11833
1.12182
1.12543
1.13181
1.13693
1.14454
1.15167
1.15969
1.17057
1.17979
1.19205
1.20436
1.2175
1.23306
1.24799
1.26545
1.28334
1.30184
1.322
1.34195
1.36354
1.38499
1.4076
1.43043
1.45394
1.4779
1.50218
1.52693
1.55171
1.57674
1.6015
1.62609
1.64999
1.67319
1.69503
1.71562
1.73429
1.75091
1.7652
1.77681
1.78585
1.79209
1.79559
1.79681
1.79453
1.78976
1.78223
1.7718
1.75866
1.74263
1.72389
1.70275
1.67926
1.65386
1.62701
1.59876
1.57011
1.54065
1.51128
1.48208
1.45281
1.4249
1.39643
1.3702
1.34323
1.31846
1.29367
1.26982
1.24807
1.22472
1.20583
1.18326
1.16565
1.14892
1.12885
1.11558
1.10031
1.08473
1.0747
1.06131
1.0486
1.04057
1.03161
1.02019
1.01217
1.00632
0.997403
0.990352
0.985473
0.979097
0.973039
0.967395
0.96387
0.959357
0.954626
0.951027
0.947365
0.944176
0.941904
0.939158
0.936292
0.934074
0.933311
0.931496
0.929292
0.928587
0.928258
0.931549
1.10071
1.30733
1.3173
1.31185
1.30882
1.30534
1.30338
1.3029
1.30387
1.30516
1.30639
1.30774
1.30968
1.31229
1.31593
1.32008
1.32383
1.32704
1.33
1.33346
1.33815
1.34185
1.34515
1.34941
1.35363
1.35754
1.36188
1.36668
1.37141
1.37612
1.38121
1.3866
1.3921
1.39766
1.40354
1.40972
1.41625
1.42298
1.42993
1.43684
1.44371
1.45037
1.457
1.46345
1.46975
1.47552
1.48077
1.48552
1.49006
1.49436
1.49837
1.50208
1.50597
1.51068
1.51659
1.52345
1.53147
1.53912
1.54354
1.54129
1.52694
1.53333
1.54436
1.54743
1.54261
1.53546
1.52688
1.51937
1.51403
1.51016
1.50677
1.50326
1.49928
1.49519
1.49065
1.4857
1.48033
1.47483
1.46878
1.4623
1.45548
1.44884
1.44241
1.43639
1.43035
1.42423
1.41762
1.4113
1.40584
1.4009
1.39573
1.39015
1.38444
1.3798
1.37559
1.3712
1.36599
1.361
1.3567
1.35241
1.34755
1.34252
1.33851
1.33463
1.33005
1.32508
1.32096
1.31682
1.31188
1.30697
1.30284
1.29842
1.293
1.288
1.28377
1.27905
1.27342
1.26853
1.26393
1.25853
1.25253
1.24719
1.24193
1.23615
1.23031
1.22529
1.21971
1.2133
1.207
1.20152
1.19566
1.18904
1.18247
1.17716
1.18285
1.18216
1.13797
1.11968
1.11653
1.11651
1.11737
1.11966
1.12299
1.12694
1.13318
1.13844
1.14602
1.15347
1.16138
1.17219
1.18187
1.19409
1.20658
1.21999
1.23596
1.25106
1.26875
1.287
1.30583
1.32631
1.34659
1.36844
1.39018
1.41298
1.436
1.45956
1.48353
1.50765
1.53215
1.55649
1.58097
1.60497
1.62866
1.65148
1.67346
1.69399
1.71324
1.73049
1.74577
1.75877
1.76934
1.77749
1.78312
1.78623
1.78731
1.78513
1.78071
1.77378
1.76424
1.75217
1.73748
1.72022
1.70068
1.67874
1.65511
1.62977
1.60288
1.57547
1.54699
1.51847
1.48982
1.46098
1.43323
1.40482
1.37845
1.35128
1.32616
1.30099
1.27669
1.25443
1.23052
1.21115
1.18847
1.17004
1.1526
1.13242
1.11876
1.10329
1.08696
1.07683
1.06372
1.05077
1.0423
1.03318
1.02196
1.01428
1.00818
0.998746
0.991733
0.9875
0.98096
0.974206
0.968769
0.965948
0.96098
0.95564
0.952123
0.949009
0.946384
0.94311
0.939768
0.937585
0.9362
0.934387
0.931993
0.930589
0.930338
0.929103
0.931756
1.10133
1.31071
1.31934
1.31236
1.30892
1.30634
1.30531
1.30492
1.30502
1.30553
1.3066
1.30841
1.31103
1.31436
1.31765
1.32079
1.32392
1.32715
1.3308
1.33517
1.33894
1.34228
1.34639
1.35062
1.35454
1.35873
1.36333
1.3679
1.37255
1.3775
1.38274
1.38797
1.39332
1.39889
1.40484
1.4111
1.41768
1.42444
1.4314
1.43831
1.44515
1.45173
1.45827
1.46465
1.47086
1.47655
1.48177
1.48652
1.49107
1.4954
1.49947
1.50314
1.50697
1.51164
1.51758
1.52428
1.53147
1.5379
1.54108
1.53725
1.52279
1.52991
1.54134
1.54594
1.54184
1.53382
1.52616
1.51957
1.51428
1.51017
1.50645
1.50253
1.49836
1.49418
1.48968
1.48485
1.47971
1.47448
1.46884
1.46288
1.45645
1.44975
1.4429
1.43631
1.43004
1.42419
1.41837
1.41245
1.40638
1.40082
1.39568
1.39071
1.38563
1.38039
1.37564
1.37136
1.36693
1.36202
1.35699
1.35256
1.34824
1.3437
1.33896
1.33485
1.33078
1.32625
1.32139
1.31714
1.31288
1.30807
1.30327
1.29887
1.29426
1.28903
1.28419
1.2797
1.27481
1.2693
1.26435
1.25942
1.25393
1.24797
1.24245
1.23724
1.23159
1.22595
1.2204
1.2146
1.20819
1.20223
1.19653
1.19061
1.18361
1.17798
1.18399
1.18338
1.13892
1.12114
1.11811
1.11775
1.11885
1.12124
1.12429
1.1282
1.13449
1.14005
1.14736
1.15505
1.16321
1.17399
1.18406
1.19632
1.20903
1.22264
1.23898
1.25443
1.27236
1.2909
1.31008
1.33086
1.35146
1.37357
1.39559
1.41856
1.44173
1.4653
1.48922
1.51311
1.53727
1.56107
1.58486
1.60798
1.63068
1.65239
1.67297
1.69225
1.71009
1.72599
1.74
1.75182
1.76141
1.76875
1.77381
1.77659
1.77752
1.77542
1.77134
1.76496
1.75622
1.74515
1.73169
1.71584
1.69782
1.67746
1.65542
1.63165
1.60624
1.58016
1.55281
1.52528
1.49734
1.46908
1.4416
1.41335
1.3869
1.35957
1.33415
1.30862
1.28391
1.26105
1.23672
1.21689
1.19397
1.17476
1.15676
1.13677
1.12224
1.10628
1.08952
1.07946
1.06607
1.05273
1.04417
1.03515
1.02394
1.01592
1.00958
1.00038
0.993589
0.989021
0.982347
0.975662
0.97096
0.967677
0.962143
0.957028
0.953836
0.951073
0.947701
0.943943
0.941101
0.939414
0.937349
0.935191
0.933309
0.932256
0.931337
0.929836
0.932479
1.10266
1.31306
1.31998
1.31287
1.31022
1.30799
1.30669
1.30575
1.30557
1.30637
1.30795
1.31026
1.31283
1.3155
1.31834
1.32137
1.32469
1.32848
1.33246
1.33612
1.3396
1.3435
1.3477
1.35163
1.35575
1.36013
1.36458
1.36911
1.37395
1.37898
1.38408
1.38924
1.39466
1.40034
1.40635
1.41259
1.41914
1.42587
1.4328
1.43964
1.44643
1.45298
1.45947
1.46577
1.47192
1.47759
1.48281
1.48753
1.49199
1.49625
1.50036
1.50409
1.50791
1.51251
1.51836
1.52483
1.53105
1.5364
1.53878
1.534
1.52013
1.52791
1.53851
1.54275
1.53919
1.53172
1.52637
1.52042
1.51527
1.5112
1.50734
1.50323
1.49894
1.49462
1.48998
1.48498
1.47972
1.47439
1.46872
1.46283
1.45659
1.4503
1.44376
1.43716
1.43059
1.42444
1.41859
1.41302
1.40738
1.40167
1.39614
1.39104
1.38622
1.38144
1.37649
1.37179
1.36733
1.36288
1.35807
1.35316
1.34871
1.34447
1.34007
1.33552
1.3313
1.32709
1.32254
1.31781
1.31347
1.3091
1.30436
1.29952
1.29493
1.2902
1.28519
1.28032
1.2756
1.27056
1.26518
1.26007
1.25484
1.24921
1.24332
1.23795
1.23273
1.22712
1.2212
1.21538
1.20939
1.20341
1.19738
1.19162
1.18496
1.17917
1.18481
1.18439
1.14027
1.1224
1.11944
1.11905
1.12007
1.12247
1.12574
1.12969
1.13594
1.14177
1.14891
1.15685
1.16526
1.17615
1.18653
1.19874
1.21184
1.22569
1.24219
1.25796
1.27623
1.29505
1.31451
1.33555
1.35644
1.37874
1.40098
1.42402
1.44726
1.47074
1.4945
1.51807
1.54179
1.56498
1.58802
1.61025
1.6319
1.65233
1.67176
1.68975
1.70627
1.72088
1.73369
1.74441
1.7531
1.7597
1.76424
1.76673
1.7675
1.76547
1.7617
1.75583
1.74784
1.73769
1.72536
1.71081
1.6942
1.6754
1.65481
1.63267
1.60871
1.58393
1.55774
1.53125
1.50408
1.47651
1.44941
1.42147
1.39505
1.3677
1.34208
1.3163
1.29124
1.26791
1.24328
1.22279
1.19965
1.17991
1.16142
1.14117
1.12596
1.10989
1.09291
1.08213
1.06861
1.05511
1.04653
1.03736
1.02581
1.0176
1.01126
1.00254
0.995144
0.990222
0.983815
0.977346
0.972487
0.968882
0.96348
0.958651
0.955302
0.952334
0.948758
0.945248
0.942651
0.940681
0.938379
0.936437
0.934724
0.933324
0.932318
0.930994
0.933489
1.10317
1.31393
1.32105
1.31411
1.31143
1.30891
1.30735
1.30649
1.30668
1.30784
1.30946
1.31145
1.31375
1.31634
1.31931
1.32264
1.32626
1.32989
1.33346
1.33703
1.34085
1.34484
1.34875
1.35279
1.35704
1.36133
1.36575
1.3704
1.37527
1.38021
1.38529
1.39054
1.39604
1.40171
1.40767
1.41388
1.4204
1.42711
1.43402
1.44085
1.44763
1.45413
1.46057
1.46682
1.47295
1.47862
1.48379
1.48844
1.49281
1.49704
1.50126
1.50513
1.50892
1.51327
1.51878
1.52489
1.53021
1.53433
1.53571
1.5306
1.51885
1.52453
1.53421
1.53833
1.53591
1.53054
1.52577
1.51983
1.51517
1.51124
1.5074
1.50339
1.49927
1.49508
1.4905
1.48554
1.48033
1.475
1.46928
1.46328
1.45697
1.45066
1.44422
1.43788
1.43152
1.42533
1.41928
1.41356
1.40801
1.40259
1.39715
1.39187
1.38684
1.38212
1.37748
1.37279
1.36806
1.3635
1.35891
1.35422
1.34949
1.34508
1.34086
1.33655
1.33205
1.32771
1.32339
1.31885
1.31418
1.30975
1.3053
1.3005
1.29561
1.29089
1.28619
1.28123
1.27626
1.27132
1.26623
1.26092
1.25555
1.25003
1.24434
1.23878
1.23352
1.22808
1.22221
1.21621
1.21029
1.20454
1.19848
1.19256
1.18599
1.18038
1.18567
1.1849
1.14157
1.12381
1.12073
1.12033
1.12135
1.12366
1.12721
1.13146
1.13764
1.14347
1.15063
1.15898
1.16749
1.17853
1.18917
1.20139
1.21486
1.229
1.24568
1.26171
1.28027
1.29941
1.31917
1.34045
1.36163
1.38411
1.40654
1.42964
1.45291
1.47623
1.49974
1.52286
1.54602
1.56847
1.59065
1.61188
1.63244
1.65165
1.6699
1.68657
1.70181
1.71521
1.72689
1.73661
1.74445
1.75038
1.75444
1.75668
1.75728
1.75533
1.75184
1.74645
1.73914
1.72985
1.71855
1.70522
1.68994
1.67258
1.65349
1.63273
1.61033
1.58692
1.56197
1.53663
1.51036
1.48363
1.45705
1.42957
1.40331
1.37601
1.35025
1.32422
1.29887
1.27512
1.25008
1.22895
1.20557
1.18535
1.16633
1.14573
1.13008
1.11405
1.09665
1.08499
1.07167
1.05803
1.04902
1.03957
1.0279
1.01966
1.01321