/*--------------------------------*- C++ -*----------------------------------*\
| =========                 |                                                 |
| \\      /  F ield         | OpenFOAM: The Open Source CFD Toolbox           |
|  \\    /   O peration     | Version:  4.x                                   |
|   \\  /    A nd           | Web:      www.OpenFOAM.org                      |
|    \\/     M anipulation  |                                                 |
\*---------------------------------------------------------------------------*/
FoamFile
{
    version     2.0;
    format      ascii;
    class       volScalarField;
    location    "51";
    object      T;
}
// * * * * * * * * * * * * * * * * * * * * * * * * * * * * * * * * * * * * * //

dimensions      [0 0 0 1 0 0 0];

internalField   nonuniform List<scalar> 
24651
(
1.12871
0.960877
1.03701
1.03692
1.03896
1.03867
1.03814
1.03723
1.03636
1.03548
1.03465
1.03361
1.03241
1.03106
1.0297
1.02832
1.02697
1.02553
1.02408
1.02229
1.02039
1.01788
1.01532
1.01326
1.01184
1.01113
1.00966
1.0074
1.00479
1.0032
1.00278
1.00184
0.99989
0.997387
0.996204
0.996028
0.994876
0.992271
0.990519
0.990008
0.989239
0.987078
0.985168
0.98465
0.983936
0.981683
0.97987
0.979456
0.978476
0.975901
0.974247
0.973986
0.97269
0.969953
0.96863
0.968133
0.965972
0.963483
0.962521
0.961399
0.959006
0.956569
0.955724
0.954246
0.951491
0.949595
0.948615
0.946554
0.943726
0.942056
0.940584
0.938126
0.935657
0.938479
0.937578
0.922565
0.916753
0.916045
0.915313
0.915433
0.916362
0.916932
0.91835
0.920717
0.921152
0.923364
0.925678
0.928437
0.931642
0.933769
0.93739
0.940498
0.94438
0.948325
0.952468
0.956872
0.961499
0.966229
0.971265
0.97609
0.981402
0.98656
0.991909
0.997144
1.00275
1.00846
1.01444
1.02059
1.02702
1.03368
1.04064
1.04788
1.05545
1.06332
1.07143
1.07973
1.08682
1.09492
1.10197
1.10821
1.11343
1.11722
1.11989
1.12069
1.1194
1.11668
1.1125
1.10678
1.09969
1.09138
1.08169
1.07295
1.0627
1.05255
1.04268
1.03322
1.02423
1.01566
1.00754
0.999899
0.992631
0.985846
0.97923
0.973046
0.967184
0.961574
0.955801
0.950342
0.945157
0.939165
0.934683
0.929192
0.924579
0.919523
0.914414
0.911319
0.906246
0.901636
0.899212
0.896373
0.891263
0.889013
0.885602
0.883362
0.880172
0.877762
0.875329
0.873916
0.872189
0.868624
0.867667
0.866532
0.865194
0.863078
0.8618
0.861452
0.860494
0.859107
0.857724
0.857742
0.85708
0.855773
0.85493
0.855703
0.854997
0.8541
0.85385
0.857784
0.924097
0.986583
0.98955
0.987524
0.986057
0.985514
0.984993
0.984455
0.983828
0.983866
0.984427
0.985706
0.986657
0.987443
0.987939
0.98842
0.989431
0.990926
0.992742
0.993921
0.994528
0.995526
0.997042
0.998373
0.999515
1.00075
1.00225
1.00372
1.00517
1.00665
1.00828
1.00993
1.01158
1.01328
1.01506
1.01692
1.01887
1.02088
1.02294
1.02499
1.02703
1.02905
1.0311
1.03318
1.03518
1.03701
1.03869
1.04021
1.0416
1.04286
1.04399
1.04504
1.04598
1.04694
1.04749
1.04762
1.04651
1.04697
1.01911
1.07706
0.906038
0.952846
1.07579
1.02621
1.04169
1.04019
1.03983
1.03911
1.03837
1.03762
1.03686
1.03605
1.03478
1.03329
1.03158
1.0297
1.02775
1.02586
1.02404
1.02214
1.02083
1.01994
1.01898
1.01749
1.01458
1.01109
1.00874
1.00836
1.00835
1.00724
1.00369
1.00096
1.00032
1.00071
0.999743
0.99618
0.993815
0.994082
0.994176
0.991511
0.988444
0.988017
0.988483
0.986316
0.983232
0.9828
0.983201
0.980719
0.977789
0.97772
0.977832
0.974614
0.972094
0.972348
0.971903
0.968198
0.966415
0.96685
0.964912
0.961389
0.960294
0.960007
0.957793
0.954616
0.953703
0.953035
0.950023
0.947369
0.946365
0.945235
0.942141
0.939619
0.938367
0.936477
0.937905
0.937852
0.923141
0.916142
0.915777
0.915849
0.914955
0.916106
0.917547
0.91871
0.920889
0.921616
0.923804
0.925503
0.928095
0.931912
0.933643
0.937337
0.940423
0.944651
0.948407
0.952577
0.957301
0.9619
0.966599
0.971759
0.976717
0.982086
0.987302
0.992775
0.998206
1.00397
1.00983
1.01595
1.02223
1.02878
1.03553
1.04256
1.04981
1.05733
1.06504
1.07295
1.08075
1.0882
1.09514
1.10138
1.10714
1.11197
1.11564
1.11908
1.11981
1.11849
1.11505
1.11105
1.10576
1.09931
1.09206
1.08372
1.07452
1.06497
1.05515
1.04554
1.03618
1.02721
1.0186
1.01037
1.00258
0.995075
0.988078
0.981173
0.97483
0.96862
0.962808
0.956893
0.951134
0.945746
0.939996
0.935502
0.929359
0.925096
0.920051
0.914973
0.911776
0.906147
0.902187
0.899767
0.896191
0.891276
0.889793
0.886359
0.883453
0.879831
0.878674
0.876009
0.873376
0.87185
0.86998
0.86786
0.86574
0.864443
0.864118
0.862202
0.860631
0.859197
0.858679
0.859261
0.857638
0.855719
0.855236
0.856375
0.855343
0.853319
0.853591
0.855344
0.857922
0.921703
0.984171
0.988332
0.987698
0.987311
0.985748
0.984
0.983212
0.983675
0.985148
0.985998
0.986026
0.985654
0.985662
0.98672
0.98867
0.99111
0.992238
0.992385
0.992385
0.993964
0.996234
0.997243
0.997961
0.999272
1.00093
1.00226
1.00352
1.00504
1.00675
1.00831
1.00983
1.01142
1.01313
1.01499
1.01691
1.0189
1.02092
1.02299
1.02504
1.02708
1.02908
1.03113
1.03315
1.03513
1.03694
1.03861
1.04013
1.04153
1.04279
1.04393
1.04496
1.04588
1.04683
1.04744
1.0479
1.04703
1.04466
1.0508
1.00037
1.10999
1.0758
1.03449
1.04607
1.04233
1.04075
1.03922
1.03825
1.03748
1.03679
1.03613
1.03547
1.03466
1.0338
1.03279
1.03159
1.02993
1.02796
1.02555
1.02294
1.02022
1.01785
1.01657
1.01605
1.01561
1.01394
1.01019
1.00703
1.00576
1.00618
1.00592
1.00279
0.99939
0.998178
0.998923
0.99854
0.995009
0.992122
0.992252
0.9927
0.990265
0.986964
0.986427
0.987107
0.984952
0.981753
0.981359
0.98184
0.9791
0.976113
0.976285
0.976246
0.972892
0.970365
0.970973
0.970094
0.966293
0.964714
0.965143
0.962713
0.95942
0.958141
0.958075
0.955284
0.952384
0.951824
0.950822
0.94733
0.944916
0.94433
0.942814
0.939339
0.937055
0.936425
0.937726
0.936715
0.923025
0.916563
0.914905
0.915733
0.915057
0.915336
0.916788
0.918704
0.920368
0.921232
0.923748
0.925643
0.927562
0.931338
0.933207
0.936834
0.940329
0.944324
0.947897
0.952029
0.956814
0.961553
0.966307
0.97146
0.976418
0.981825
0.987168
0.992746
0.998453
1.0044
1.01043
1.01672
1.02316
1.02986
1.03676
1.0439
1.05123
1.05876
1.06639
1.0741
1.08165
1.08947
1.09666
1.10307
1.10867
1.11315
1.11645
1.11845
1.119
1.11801
1.1159
1.11234
1.10749
1.10129
1.09388
1.08547
1.07604
1.06683
1.05733
1.04786
1.03849
1.0294
1.02061
1.01215
1.00412
0.99633
0.989083
0.981898
0.975324
0.968602
0.962522
0.956575
0.950807
0.945487
0.939688
0.934753
0.928635
0.924412
0.919774
0.914202
0.910888
0.906045
0.902109
0.899217
0.895412
0.891461
0.889405
0.88549
0.882473
0.880253
0.878427
0.874902
0.872158
0.87184
0.869632
0.866404
0.865071
0.864698
0.863862
0.860478
0.85947
0.85916
0.859446
0.858676
0.855671
0.855248
0.856283
0.855961
0.853336
0.853145
0.85484
0.854738
0.855559
0.918922
0.983607
0.989845
0.988398
0.986185
0.984025
0.983531
0.984421
0.985367
0.985017
0.984379
0.983807
0.984615
0.986585
0.988877
0.990473
0.990602
0.990354
0.990599
0.992848
0.995483
0.996011
0.996312
0.997788
0.999565
1.00077
1.0019
1.00345
1.00515
1.00662
1.00805
1.00963
1.01142
1.01321
1.01503
1.01689
1.01884
1.02084
1.02289
1.02492
1.02695
1.02896
1.03101
1.033
1.03494
1.03674
1.0384
1.0399
1.04127
1.04251
1.04364
1.04468
1.0456
1.04654
1.04728
1.04846
1.04904
1.04993
1.04503
1.06196
1.01753
1.04938
1.05888
1.04592
1.04373
1.04008
1.03848
1.03756
1.03652
1.0355
1.03456
1.03364
1.03268
1.03183
1.03092
1.02992
1.02885
1.02775
1.02634
1.02463
1.02219
1.01905
1.01611
1.01401
1.01314
1.01321
1.01173
1.00879
1.00541
1.00372
1.00413
1.00359
1.00128
0.997919
0.996444
0.997245
0.996424
0.993347
0.990738
0.990606
0.990714
0.98843
0.985476
0.985074
0.985301
0.983031
0.980207
0.980016
0.97983
0.977115
0.974698
0.97503
0.974074
0.970837
0.969066
0.969518
0.967706
0.964192
0.963251
0.962925
0.960475
0.957441
0.956507
0.955705
0.952754
0.950432
0.950055
0.94822
0.944967
0.942819
0.942251
0.940027
0.936709
0.935518
0.93799
0.936258
0.922215
0.916454
0.914931
0.915
0.915028
0.915341
0.915923
0.917917
0.919934
0.920326
0.923073
0.925255
0.927455
0.930768
0.932749
0.936534
0.939861
0.943789
0.94773
0.951752
0.956382
0.961166
0.966021
0.971283
0.976384
0.981831
0.987178
0.992991
0.998868
1.00498
1.01115
1.01759
1.02416
1.03099
1.038
1.04524
1.05264
1.06019
1.06777
1.07526
1.08251
1.09
1.09664
1.1029
1.10821
1.11245
1.11558
1.11736
1.11785
1.11695
1.115
1.11163
1.10705
1.10115
1.09399
1.08631
1.07743
1.06862
1.05944
1.05009
1.04074
1.03157
1.02266
1.01404
1.00583
0.997814
0.990363
0.982936
0.976157
0.969137
0.962848
0.956684
0.950715
0.94527
0.939199
0.934334
0.92856
0.924219
0.91893
0.913434
0.910428
0.905578
0.901266
0.89822
0.894831
0.890639
0.888189
0.884417
0.882142
0.879934
0.877438
0.873979
0.872122
0.8717
0.86834
0.865882
0.865519
0.864834
0.862734
0.859775
0.859913
0.859889
0.859051
0.856833
0.855375
0.856141
0.855678
0.854051
0.853275
0.854222
0.854121
0.852738
0.85468
0.920368
0.985923
0.989165
0.986486
0.98463
0.984328
0.985108
0.98492
0.983898
0.982906
0.983087
0.984378
0.986593
0.988139
0.988552
0.988456
0.988197
0.989386
0.99196
0.994502
0.994683
0.994559
0.99625
0.998239
0.999279
1.00026
1.00186
1.00354
1.00493
1.00629
1.00797
1.00972
1.01141
1.01308
1.01482
1.01665
1.01861
1.0206
1.02266
1.0247
1.02675
1.02876
1.03078
1.03279
1.03471
1.03645
1.03806
1.03952
1.04087
1.0421
1.04322
1.04425
1.04517
1.04615
1.04697
1.04812
1.05008
1.05197
1.05363
1.05214
1.06055
1.06294
1.05748
1.04966
1.04438
1.04095
1.03989
1.03884
1.03755
1.03634
1.03515
1.03397
1.03263
1.03127
1.02981
1.02837
1.02697
1.02572
1.02466
1.02377
1.02234
1.02042
1.01781
1.01457
1.01203
1.01075
1.01089
1.00956
1.00718
1.00386
1.00208
1.00236
1.0017
0.999586
0.996409
0.995101
0.995714
0.994516
0.991581
0.989355
0.989439
0.988865
0.98648
0.984093
0.984091
0.983467
0.980959
0.978785
0.979065
0.977944
0.975004
0.973265
0.973556
0.972011
0.968874
0.967683
0.96752
0.965158
0.962397
0.961993
0.960778
0.958099
0.955524
0.955194
0.953437
0.950301
0.948624
0.947895
0.945633
0.94241
0.94117
0.93981
0.93707
0.934569
0.937516
0.936425
0.921326
0.915889
0.915043
0.914278
0.914545
0.915465
0.915567
0.916733
0.919163
0.919576
0.922174
0.924446
0.926861
0.930082
0.932143
0.936007
0.939133
0.943094
0.94739
0.951521
0.956175
0.960957
0.96589
0.971234
0.976423
0.982049
0.987605
0.99365
0.999666
1.00592
1.01224
1.01881
1.02551
1.03244
1.03951
1.04677
1.05414
1.06161
1.06907
1.0764
1.08358
1.09081
1.09709
1.10292
1.10774
1.11162
1.1144
1.11596
1.11641
1.11563
1.11387
1.11083
1.10657
1.10127
1.09468
1.08744
1.07899
1.07037
1.06144
1.05232
1.04312
1.03402
1.0251
1.01638
1.00804
0.999828
0.992186
0.984514
0.977531
0.970343
0.963773
0.957282
0.951035
0.945393
0.939088
0.934448
0.928578
0.923821
0.918342
0.913243
0.910214
0.904801
0.900243
0.89749
0.893963
0.88928
0.887139
0.88385
0.8819
0.879074
0.876334
0.873676
0.872483
0.871004
0.867304
0.866112
0.86544
0.864203
0.861587
0.860022
0.860204
0.859328
0.858005
0.855903
0.855959
0.855823
0.854316
0.85317
0.853926
0.853738
0.852538
0.85197
0.854952
0.919251
0.983966
0.986663
0.985146
0.985154
0.985172
0.984454
0.983011
0.982308
0.98274
0.984224
0.985732
0.986598
0.986553
0.986358
0.986885
0.988363
0.990909
0.992759
0.993112
0.992996
0.994791
0.996946
0.997757
0.998655
1.0003
1.00196
1.00326
1.00461
1.00632
1.00804
1.00959
1.01113
1.01278
1.0146
1.01653
1.01853
1.02057
1.02266
1.02472
1.02677
1.02874
1.03071
1.0326
1.03443
1.03611
1.03769
1.03914
1.04046
1.04165
1.04272
1.04374
1.04467
1.0457
1.04672
1.04794
1.04997
1.05293
1.05623
1.06055
1.05692
1.06251
1.05868
1.04953
1.04432
1.04251
1.041
1.0394
1.03824
1.03725
1.03633
1.03532
1.03403
1.03242
1.03062
1.02881
1.02698
1.02525
1.02352
1.02202
1.02094
1.01991
1.01818
1.0161
1.013
1.0102
1.00883
1.00877
1.00756
1.00542
1.00221
1.00062
1.00065
0.999832
0.997856
0.994939
0.993858
0.994083
0.992635
0.989851
0.988031
0.988128
0.987083
0.984607
0.98278
0.982841
0.981684
0.979025
0.977455
0.977517
0.975971
0.973065
0.972033
0.971745
0.969763
0.967007
0.966421
0.965424
0.962717
0.960633
0.960129
0.958518
0.955636
0.953892
0.953126
0.951038
0.948136
0.94687
0.945425
0.943028
0.94045
0.939025
0.937139
0.934446
0.936667
0.9365
0.921172
0.914953
0.914702
0.914162
0.913632
0.915092
0.915752
0.91611
0.918413
0.919695
0.921666
0.923635
0.926143
0.929603
0.931689
0.935568
0.938904
0.942861
0.947064
0.951378
0.956189
0.961049
0.96606
0.971518
0.976879
0.982752
0.988544
0.994704
1.00082
1.00717
1.01361
1.02026
1.02705
1.03403
1.04113
1.04837
1.05567
1.063
1.07025
1.07737
1.08431
1.09108
1.09696
1.10238
1.10682
1.11045
1.11302
1.11448
1.11491
1.11418
1.1125
1.10965
1.10564
1.10076
1.0947
1.08794
1.0801
1.07183
1.06325
1.05443
1.04545
1.03649
1.02762
1.01889
1.01049
1.00217
0.994408
0.986573
0.979429
0.972097
0.965352
0.958591
0.952042
0.946121
0.93969
0.934745
0.928532
0.923621
0.918517
0.913355
0.909773
0.904256
0.899985
0.897492
0.893225
0.888503
0.886919
0.884321
0.881247
0.877958
0.875979
0.874121
0.872064
0.86995
0.867301
0.866329
0.864746
0.862968
0.86129
0.860363
0.859667
0.858176
0.856682
0.856029
0.855886
0.854776
0.853163
0.853381
0.853629
0.852508
0.851478
0.852321
0.854768
0.916859
0.980264
0.985826
0.985539
0.985199
0.984217
0.982621
0.982057
0.982525
0.983797
0.984572
0.985078
0.984784
0.984938
0.985883
0.987572
0.989743
0.991119
0.991633
0.991573
0.993179
0.995443
0.996301
0.997096
0.998783
1.0004
1.00164
1.00298
1.00469
1.00632
1.00779
1.00928
1.01098
1.01279
1.01466
1.01657
1.01855
1.02056
1.02262
1.02464
1.02665
1.0286
1.03055
1.03235
1.03413
1.03581
1.03737
1.03877
1.04005
1.04119
1.04226
1.04328
1.04426
1.04534
1.04654
1.04801
1.05021
1.05297
1.05812
1.06232
1.06086
1.06262
1.05745
1.04913
1.04473
1.043
1.04059
1.0387
1.03746
1.03656
1.03578
1.03501
1.03404
1.03291
1.03155
1.03003
1.02821
1.02613
1.0239
1.02173
1.01981
1.01835
1.01723
1.01585
1.01401
1.01136
1.00857
1.00708
1.00663
1.00555
1.00362
1.00076
0.99918
0.998918
0.998007
0.996085
0.993507
0.992547
0.99231
0.990759
0.988144
0.986776
0.986611
0.985306
0.982852
0.981565
0.981319
0.97984
0.977251
0.976205
0.975755
0.97392
0.971426
0.970629
0.969782
0.967438
0.965348
0.964785
0.963267
0.96052
0.958885
0.958074
0.956208
0.953476
0.952047
0.950912
0.948531
0.946002
0.944602
0.943063
0.940521
0.938079
0.936632
0.934732
0.936079
0.935974
0.921413
0.914618
0.913996
0.914134
0.91322
0.91427
0.915444
0.916232
0.918014
0.919535
0.92183
0.923514
0.925786
0.929387
0.93155
0.935408
0.939021
0.942947
0.947126
0.951422
0.956409
0.961458
0.966619
0.972268
0.977829
0.983868
0.989798
0.996031
1.00225
1.00869
1.01522
1.02194
1.02877
1.03574
1.04281
1.04997
1.05717
1.06434
1.07141
1.0783
1.08495
1.09125
1.09674
1.10175
1.10583
1.10913
1.11146
1.1128
1.11321
1.11252
1.11094
1.10833
1.10466
1.10018
1.09457
1.0883
1.08105
1.0732
1.06496
1.05644
1.04771
1.03894
1.0302
1.02154
1.01315
1.00478
0.996935
0.988966
0.981677
0.974196
0.967324
0.96039
0.953649
0.947523
0.940832
0.935402
0.928822
0.924086
0.919036
0.913232
0.909501
0.904403
0.900275
0.89723
0.892927
0.888657
0.886813
0.884027
0.880325
0.87758
0.876276
0.873769
0.871008
0.869421
0.867825
0.865853
0.863683
0.862414
0.861624
0.859957
0.8585
0.857071
0.856286
0.856261
0.855078
0.853527
0.853067
0.853628
0.852715
0.851333
0.851593
0.852402
0.853934
0.914801
0.978982
0.986301
0.985168
0.984079
0.98258
0.982002
0.98245
0.98308
0.98351
0.983628
0.983479
0.983874
0.985001
0.986805
0.98835
0.989496
0.989928
0.990175
0.991623
0.993828
0.99488
0.995576
0.997262
0.998842
1.00004
1.00137
1.00305
1.00464
1.00604
1.00754
1.00926
1.01102
1.01275
1.01453
1.01637
1.01831
1.02028
1.02231
1.02432
1.02632
1.02827
1.03021
1.03206
1.03386
1.03551
1.03701
1.03837
1.03964
1.04081
1.04189
1.04291
1.04392
1.04504
1.04634
1.04801
1.05066
1.05327
1.05845
1.06367
1.06081
1.06178
1.05708
1.0496
1.0457
1.04265
1.03991
1.03799
1.03665
1.03563
1.03481
1.03397
1.033
1.03201
1.03089
1.02959
1.02814
1.02661
1.02487
1.02276
1.02018
1.01792
1.01609
1.0147
1.01353
1.01194
1.00971
1.00699
1.00537
1.00457
1.0036
1.00181
0.99926
0.997757
0.997159
0.996232
0.994362
0.992093
0.991082
0.990485
0.988939
0.986657
0.985512
0.984994
0.983561
0.981357
0.980256
0.979629
0.977955
0.975758
0.974855
0.973946
0.971897
0.969846
0.969086
0.967815
0.965374
0.963695
0.962931
0.961168
0.95864
0.957064
0.955977
0.953908
0.951461
0.95015
0.948619
0.946059
0.943805
0.942457
0.94074
0.937948
0.935814
0.934509
0.93608
0.93515
0.921238
0.914902
0.913513
0.913787
0.913565
0.913874
0.914758
0.916139
0.91785
0.919147
0.921728
0.923698
0.925851
0.929294
0.931685
0.935542
0.939135
0.943143
0.947624
0.95193
0.957009
0.96225
0.967586
0.973387
0.979089
0.985219
0.991212
0.997498
1.00379
1.01029
1.01688
1.02362
1.03046
1.0374
1.04442
1.05146
1.0585
1.06546
1.07229
1.07889
1.08522
1.09106
1.09625
1.1009
1.10466
1.10766
1.10976
1.11096
1.11134
1.1107
1.10923
1.10685
1.10349
1.09932
1.09412
1.08823
1.08152
1.07413
1.0663
1.05814
1.0497
1.04119
1.03261
1.02408
1.01573
1.00737
0.999489
0.991448
0.984072
0.976467
0.969484
0.962439
0.955579
0.949327
0.942364
0.936718
0.930018
0.925064
0.919588
0.913409
0.909854
0.904977
0.900238
0.897035
0.893053
0.888862
0.886436
0.883475
0.879937
0.877829
0.876002
0.872816
0.870467
0.869556
0.867545
0.864901
0.863271
0.862833
0.861434
0.858985
0.857915
0.856989
0.856791
0.855742
0.853972
0.853333
0.853602
0.853107
0.851715
0.851359
0.851991
0.851718
0.852743
0.914692
0.980011
0.985866
0.983833
0.982627
0.982001
0.982319
0.982491
0.982555
0.982345
0.98238
0.982955
0.984235
0.985731
0.986863
0.98778
0.988223
0.988835
0.990207
0.99226
0.99346
0.994051
0.995629
0.997284
0.998451
0.999759
1.00141
1.00294
1.0043
1.00582
1.00753
1.00918
1.01078
1.01239
1.01415
1.016
1.01795
1.01995
1.022
1.02403
1.02605
1.02798
1.02988
1.03173
1.03351
1.03511
1.0366
1.03798
1.03927
1.04045
1.04151
1.04251
1.04354
1.04473
1.04616
1.04795
1.05066
1.05355
1.05869
1.06403
1.0602
1.06202
1.05722
1.05015
1.04582
1.0422
1.04003
1.0383
1.0367
1.03546
1.03441
1.03337
1.03226
1.03112
1.02993
1.02867
1.02728
1.02591
1.02443
1.02282
1.02095
1.01871
1.01621
1.01416
1.01249
1.01125
1.00982
1.00793
1.0055
1.00379
1.00266
1.00165
1.00006
0.99786
0.996346
0.995512
0.994492
0.992691
0.990674
0.989592
0.988766
0.987256
0.985263
0.984161
0.983391
0.981873
0.979913
0.978835
0.977928
0.976164
0.974315
0.973291
0.972084
0.970032
0.968344
0.967363
0.965801
0.963524
0.96211
0.961027
0.95913
0.956812
0.955241
0.95391
0.951686
0.94958
0.948135
0.946374
0.94384
0.941798
0.940392
0.938341
0.935602
0.933857
0.936054
0.934905
0.9206
0.914839
0.913552
0.913289
0.913621
0.914029
0.914556
0.915697
0.917758
0.91902
0.921442
0.923676
0.926025
0.929357
0.931953
0.935884
0.939464
0.943547
0.948337
0.952817
0.957974
0.963308
0.968779
0.974678
0.980445
0.986624
0.992683
0.999038
1.00541
1.01196
1.01859
1.02532
1.03215
1.03903
1.04597
1.05288
1.05975
1.06649
1.07306
1.07934
1.08528
1.09073
1.09557
1.09983
1.10327
1.10599
1.10788
1.10897
1.10932
1.10871
1.10734
1.10515
1.10207
1.09823
1.09348
1.08798
1.08179
1.07486
1.06746
1.05968
1.05156
1.04332
1.03493
1.02655
1.01828
1.00997
1.00207
0.993986
0.986531
0.978819
0.971718
0.964558
0.957609
0.951229
0.944107
0.938498
0.931679
0.926262
0.920633
0.914388
0.910635
0.905384
0.900345
0.897333
0.893234
0.888804
0.886255
0.883364
0.880118
0.877721
0.875438
0.872466
0.870684
0.869435
0.866776
0.864566
0.863665
0.862894
0.860787
0.858677
0.858092
0.857455
0.856546
0.854792
0.853757
0.853788
0.85329
0.852237
0.851644
0.851815
0.851594
0.850935
0.852358
0.914634
0.980167
0.984564
0.982618
0.982189
0.982135
0.982007
0.981683
0.981404
0.981572
0.982259
0.983428
0.984462
0.985349
0.985982
0.986661
0.987566
0.988965
0.990735
0.991944
0.992613
0.993893
0.995649
0.996854
0.998123
0.999695
1.00117
1.00248
1.00399
1.00565
1.00722
1.00871
1.01028
1.01199
1.0138
1.01567
1.01761
1.0196
1.02164
1.02365
1.02565
1.02755
1.02944
1.03125
1.033
1.03462
1.03613
1.03752
1.03881
1.03997
1.04103
1.04205
1.04311
1.04438
1.04595
1.04786
1.05042
1.05341
1.05861
1.06407
1.06003
1.0616
1.05641
1.0491
1.04501
1.04222
1.04081
1.03909
1.03745
1.03621
1.03511
1.03392
1.03257
1.03116
1.02972
1.02825
1.02674
1.02526
1.02371
1.02215
1.02049
1.01876
1.01682
1.01457
1.01229
1.01054
1.00911
1.0078
1.00612
1.00398
1.00218
1.00093
0.999847
0.998389
0.996451
0.994955
0.993886
0.992786
0.991108
0.989309
0.98812
0.987117
0.985651
0.983929
0.982785
0.981779
0.980234
0.978504
0.977349
0.976214
0.974476
0.972793
0.971629
0.970255
0.968326
0.966728
0.965561
0.963873
0.961882
0.960398
0.959047
0.957135
0.954995
0.953432
0.951827
0.949674
0.947664
0.946085
0.944094
0.941799
0.939861
0.938177
0.935799
0.93358
0.935654
0.934963
0.920453
0.914387
0.913568
0.913184
0.913279
0.914109
0.914745
0.915635
0.917752
0.919244
0.921514
0.923741
0.926267
0.92971
0.932486
0.936431
0.940219
0.944312
0.949174
0.953835
0.959117
0.964507
0.970042
0.975998
0.981813
0.988041
0.99416
1.00057
1.00699
1.01357
1.02022
1.02694
1.03373
1.04052
1.04734
1.05408
1.06076
1.06725
1.07354
1.0795
1.08507
1.09016
1.09466
1.09856
1.10171
1.10418
1.10588
1.10686
1.10719
1.1066
1.10532
1.10331
1.10048
1.09694
1.09257
1.08746
1.08169
1.07525
1.06827
1.06088
1.0531
1.04517
1.037
1.02881
1.02066
1.01242
1.00455
0.996446
0.988946
0.98116
0.973963
0.966697
0.959641
0.953127
0.946
0.94029
0.933249
0.927665
0.922227
0.915835
0.911575
0.906247
0.90115
0.898113
0.893586
0.889104
0.886585
0.883841
0.880261
0.877501
0.87535
0.872725
0.870801
0.869104
0.866592
0.864911
0.863579
0.862357
0.86047
0.858978
0.858144
0.857092
0.855731
0.85453
0.854064
0.853581
0.852553
0.852054
0.851933
0.851546
0.850951
0.850777
0.852337
0.914083
0.979137
0.983731
0.982373
0.982122
0.98161
0.981032
0.980748
0.980919
0.98162
0.982457
0.983226
0.98384
0.984438
0.985283
0.986364
0.987799
0.989252
0.99037
0.991169
0.992301
0.993975
0.995215
0.996399
0.997891
0.999293
1.00057
1.002
1.00359
1.00509
1.00655
1.0081
1.00978
1.0115
1.01327
1.01508
1.01699
1.01895
1.02097
1.02297
1.02495
1.02686
1.02876
1.03058
1.03236
1.03401
1.03553
1.03689
1.03817
1.03936
1.04046
1.04151
1.04261
1.04393
1.04559
1.0476
1.05001
1.05283
1.05784
1.06339
1.06015
1.05963
1.05429
1.04758
1.04429
1.04255
1.04076
1.03868
1.03713
1.03602
1.03505
1.03403
1.03284
1.0316
1.03019
1.02866
1.027
1.02529
1.02352
1.02174
1.01998
1.01826
1.0165
1.01468
1.01271
1.01062
1.00878
1.00725
1.00581
1.00425
1.00243
1.00069
0.999298
0.998105
0.996729
0.995047
0.993527
0.992335
0.991125
0.989551
0.987879
0.986662
0.985569
0.984144
0.982549
0.981346
0.980202
0.978648
0.977034
0.975819
0.974546
0.972826
0.971208
0.96993
0.968466
0.966628
0.965072
0.963741
0.962064
0.960165
0.958587
0.95705
0.955127
0.953129
0.951504
0.949798
0.947668
0.945665
0.943874
0.941938
0.939769
0.937726
0.935676
0.933621
0.935268
0.934653
0.920542
0.914272
0.913368
0.913273
0.913181
0.913975
0.914886
0.915936
0.917944
0.919569
0.921988
0.924233
0.926806
0.930321
0.933288
0.937202
0.941142
0.945308
0.950201
0.954866
0.960252
0.965712
0.97129
0.977298
0.983174
0.989469
0.995665
1.00214
1.00861
1.0152
1.02186
1.02854
1.03528
1.04197
1.04866
1.05521
1.06167
1.06788
1.07386
1.07945
1.08467
1.08938
1.09355
1.09711
1.09999
1.10222
1.10377
1.10463
1.10494
1.10437
1.10319
1.10132
1.09873
1.09546
1.09146
1.08675
1.0814
1.0754
1.06887
1.06189
1.05447
1.04688
1.03897
1.03101
1.02299
1.01487
1.00703
0.998933
0.991389
0.983541
0.976248
0.968869
0.961687
0.955066
0.947877
0.941989
0.934864
0.929216
0.923776
0.917187
0.912753
0.907628
0.902377
0.898959
0.894384
0.890068
0.88735
0.884309
0.880428
0.877721
0.87579
0.872881
0.870589
0.869018
0.866924
0.86495
0.863135
0.862045
0.860567
0.858978
0.85774
0.856503
0.855447
0.854685
0.853865
0.853002
0.852357
0.852196
0.851702
0.850994
0.85083
0.850817
0.852054
0.912962
0.978578
0.983745
0.982214
0.981492
0.980598
0.980257
0.98038
0.980846
0.981389
0.981917
0.982416
0.98311
0.984023
0.985215
0.986501
0.98771
0.988742
0.989675
0.990828
0.992329
0.993569
0.994638
0.996004
0.997352
0.998581
0.999939
1.00142
1.00287
1.00429
1.00583
1.00744
1.00907
1.01071
1.01243
1.01424
1.01615
1.01811
1.02013
1.02213
1.02412
1.02604
1.02794
1.02979
1.03159
1.03325
1.03474
1.03611
1.0374
1.03863
1.03978
1.04084
1.04195
1.04328
1.045
1.04708
1.04943
1.052
1.05662
1.06184
1.05911
1.05716
1.05237
1.04673
1.04405
1.0425
1.04018
1.038
1.0365
1.03542
1.03446
1.03346
1.03234
1.03119
1.02991
1.02852
1.027
1.02543
1.0237
1.02186
1.0199
1.01796
1.01609
1.01433
1.01258
1.01079
1.00888
1.00703
1.00542
1.00398
1.00246
1.00081
0.999129
0.997713
0.996456
0.995126
0.993577
0.992055
0.990744
0.989452
0.98797
0.986445
0.985195
0.984016
0.982611
0.981106
0.979826
0.978562
0.977037
0.975499
0.974194
0.972797
0.971114
0.969515
0.968167
0.966644
0.964883
0.963329
0.961899
0.960207
0.958356
0.956669
0.954988
0.95311
0.951203
0.949537
0.947675
0.945594
0.943541
0.941738
0.939783
0.937603
0.935362
0.93356
0.935197
0.934269
0.920572
0.914433
0.913357
0.913319
0.913446
0.91409
0.915047
0.916316
0.918343
0.920044
0.922516
0.924955
0.927538
0.931041
0.934176
0.938088
0.942068
0.946303
0.95129
0.955962
0.961371
0.966894
0.972532
0.978598
0.984547
0.990901
0.997164
1.00367
1.01018
1.01677
1.02341
1.03004
1.0367
1.04325
1.04978
1.05613
1.06234
1.06827
1.07393
1.07919
1.08407
1.08843
1.09226
1.09551
1.09814
1.10016
1.10156
1.10233
1.1026
1.10206
1.10096
1.09923
1.09685
1.09384
1.09017
1.08582
1.08087
1.07527
1.06919
1.06261
1.05557
1.04831
1.04069
1.03297
1.02513
1.01715
1.00938
1.00133
0.993769
0.985894
0.978526
0.97106
0.963772
0.957024
0.949696
0.943696
0.936595
0.930748
0.925147
0.91859
0.914081
0.908926
0.903432
0.899974
0.895499
0.89106
0.888114
0.884911
0.881006
0.87837
0.876267
0.873015
0.870671
0.869291
0.867098
0.864823
0.863032
0.862171
0.860583
0.858743
0.857505
0.856444
0.855562
0.854529
0.853452
0.852834
0.852465
0.851994
0.851267
0.85088
0.85085
0.850514
0.851471
0.912534
0.978877
0.983615
0.981582
0.980645
0.980006
0.979841
0.98002
0.980242
0.980564
0.981058
0.98177
0.982709
0.983821
0.984926
0.98598
0.986994
0.988054
0.989268
0.990654
0.991864
0.992882
0.99412
0.995398
0.996587
0.997865
0.999258
1.00063
1.00202
1.0035
1.00505
1.00659
1.00816
1.0098
1.01154
1.01337
1.01528
1.01725
1.01928
1.02129
1.02327
1.02518
1.02707
1.02892
1.03071
1.03235
1.03385
1.03522
1.03654
1.03779
1.03897
1.04003
1.04113
1.04247
1.04424
1.04635
1.04862
1.05108
1.05539
1.06001
1.05723
1.05551
1.05118
1.04617
1.04371
1.04187
1.03983
1.0379
1.03638
1.03521
1.03415
1.03303
1.03184
1.03066
1.02938
1.02801
1.02655
1.02507
1.02347
1.02176
1.01991
1.01799
1.01601
1.01407
1.01223
1.01053
1.00882
1.00708
1.00531
1.00364
1.00211
1.00064
0.999115
0.99755
0.996091
0.994797
0.993455
0.991969
0.990435
0.989066
0.987752
0.986357
0.984903
0.983627
0.982385
0.98099
0.979493
0.97816
0.976835
0.975323
0.973805
0.9724
0.97094
0.969285
0.967739
0.96631
0.964767
0.963057
0.96151
0.959986
0.958269
0.956403
0.954635
0.952954
0.951118
0.94927
0.947447
0.94555
0.943472
0.941518
0.939629
0.937639
0.935299
0.933408
0.935185
0.934245
0.920524
0.914628
0.913605
0.913476
0.91379
0.914533
0.915502
0.91681
0.918891
0.920731
0.923131
0.925675
0.928343
0.931827
0.935072
0.938974
0.94299
0.947252
0.952311
0.957053
0.962498
0.968077
0.973793
0.979932
0.985963
0.992381
0.99871
1.00525
1.01178
1.01837
1.02498
1.03153
1.03808
1.04448
1.05082
1.05693
1.06287
1.0685
1.07381
1.07874
1.08328
1.08729
1.09082
1.09378
1.09617
1.098
1.09926
1.09995
1.10018
1.09966
1.09864
1.09704
1.09486
1.09209
1.08871
1.08472
1.08015
1.07495
1.06928
1.06311
1.05646
1.04956
1.04225
1.03482
1.0272
1.0194
1.01173
1.00375
0.996196
0.988302
0.98087
0.973324
0.965936
0.959027
0.951593
0.945475
0.938327
0.932273
0.926542
0.9201
0.915364
0.910102
0.904522
0.901118
0.89657
0.891999
0.889019
0.885843
0.881913
0.879096
0.876838
0.873581
0.871234
0.869668
0.867319
0.865006
0.863421
0.862375
0.86052
0.858736
0.857609
0.856661
0.855542
0.854283
0.853373
0.852897
0.852321
0.851697
0.851145
0.850884
0.850637
0.850149
0.851101
0.912359
0.979092
0.983031
0.980935
0.980207
0.979631
0.979321
0.979327
0.979405
0.979828
0.980467
0.981305
0.982213
0.983141
0.984106
0.985143
0.986268
0.98752
0.988818
0.989999
0.991086
0.992263
0.993488
0.994643
0.995864
0.997164
0.99848
0.999814
1.00124
1.00271
1.0042
1.00571
1.00729
1.00895
1.0107
1.01252
1.01443
1.01639
1.0184
1.02039
1.02237
1.02427
1.02615
1.02798
1.02975
1.03139
1.0329
1.03427
1.03557
1.03681
1.03801
1.03909
1.0402
1.04156
1.04336
1.04549
1.04757
1.04998
1.05419
1.05847
1.0558
1.05425
1.05007
1.04519
1.04288
1.0411
1.03966
1.03784
1.03632
1.03514
1.03404
1.03288
1.03166
1.03043
1.02911
1.02769
1.02619
1.02467
1.02305
1.02136
1.01957
1.01776
1.01585
1.01392
1.012
1.01018
1.00845
1.0068
1.00513
1.00342
1.00175
1.00021
0.998762
0.997318
0.995818
0.994385
0.993023
0.991672
0.990196
0.988688
0.987306
0.986007
0.984653
0.983258
0.981952
0.980658
0.979243
0.977766
0.976398
0.975025
0.973534
0.971999
0.970536
0.969038
0.967463
0.965933
0.964456
0.962892
0.961239
0.959657
0.958033
0.95627
0.954416
0.9527
0.951013
0.949192
0.94728
0.945396
0.943451
0.9415
0.939519
0.9376
0.935375
0.93347
0.935181
0.934414
0.920791
0.914956
0.914005
0.91388
0.91424
0.915045
0.916157
0.917487
0.919556
0.921486
0.923835
0.926436
0.929162
0.932657
0.935967
0.939826
0.94393
0.948233
0.953312
0.958126
0.963656
0.969304
0.975096
0.981302
0.987408
0.993867
1.00025
1.00679
1.01333
1.01988
1.02643
1.03288
1.03931
1.04553
1.05166
1.05752
1.06319
1.0685
1.0735
1.07811
1.08231
1.08601
1.08924
1.09193
1.0941
1.09575
1.09688
1.09751
1.0977
1.09719
1.09624
1.09477
1.09277
1.09023
1.08713
1.08345
1.07923
1.07443
1.06913
1.06338
1.05711
1.05057
1.04358
1.03645
1.02905
1.02146
1.01392
1.00606
0.998535
0.99066
0.983196
0.9756
0.968132
0.9611
0.953594
0.947284
0.940085
0.933881
0.928017
0.921526
0.916609
0.911353
0.905752
0.902149
0.897595
0.893006
0.890047
0.886852
0.882816
0.879927
0.877666
0.874573
0.871938
0.870167
0.86787
0.86558
0.863875
0.862609
0.860717
0.859017
0.857835
0.856791
0.855556
0.854349
0.853488
0.852889
0.852191
0.85164
0.851138
0.850761
0.850464
0.85003
0.850907
0.912035
0.978935
0.982652
0.980592
0.979858
0.979199
0.978764
0.978751
0.978902
0.979373
0.979984
0.980698
0.981493
0.982375
0.983375