/*--------------------------------*- C++ -*----------------------------------*\
| =========                 |                                                 |
| \\      /  F ield         | OpenFOAM: The Open Source CFD Toolbox           |
|  \\    /   O peration     | Version:  4.x                                   |
|   \\  /    A nd           | Web:      www.OpenFOAM.org                      |
|    \\/     M anipulation  |                                                 |
\*---------------------------------------------------------------------------*/
FoamFile
{
    version     2.0;
    format      ascii;
    class       volVectorField;
    location    "51";
    object      U;
}
// * * * * * * * * * * * * * * * * * * * * * * * * * * * * * * * * * * * * * //

dimensions      [0 1 -1 0 0 0 0];

internalField   nonuniform List<vector> 
24651
(
(0.0339471 0.00735782 0)
(0.0897123 0.0604618 0)
(0.241289 0.117384 0)
(0.365288 0.06865 0)
(0.356517 0.059463 0)
(0.350692 0.0505378 0)
(0.34908 0.0489539 0)
(0.351499 0.0488726 0)
(0.355352 0.049414 0)
(0.362365 0.0502452 0)
(0.370984 0.0515058 0)
(0.378553 0.0525538 0)
(0.386347 0.0545572 0)
(0.395289 0.0563275 0)
(0.404653 0.0573074 0)
(0.414452 0.0581547 0)
(0.424689 0.0588016 0)
(0.435296 0.059395 0)
(0.446492 0.0583519 0)
(0.457887 0.0568948 0)
(0.468516 0.0564182 0)
(0.478929 0.0570767 0)
(0.487825 0.058997 0)
(0.494752 0.0629543 0)
(0.501614 0.0640232 0)
(0.508806 0.0618303 0)
(0.516471 0.0578879 0)
(0.522802 0.0569001 0)
(0.52747 0.059911 0)
(0.531087 0.0621138 0)
(0.536261 0.0614093 0)
(0.542856 0.056754 0)
(0.547753 0.0551518 0)
(0.551028 0.0578003 0)
(0.555207 0.0600879 0)
(0.561706 0.0582287 0)
(0.569751 0.0540278 0)
(0.576913 0.0545346 0)
(0.582304 0.0590046 0)
(0.589604 0.058219 0)
(0.598969 0.0542276 0)
(0.606759 0.0538868 0)
(0.611772 0.0572961 0)
(0.617637 0.0562706 0)
(0.624585 0.052643 0)
(0.629642 0.0520168 0)
(0.632202 0.0545474 0)
(0.637226 0.0534786 0)
(0.645602 0.0483462 0)
(0.653355 0.0507849 0)
(0.65687 0.0516044 0)
(0.662125 0.048876 0)
(0.669785 0.042939 0)
(0.678543 0.0446932 0)
(0.682065 0.0483599 0)
(0.68776 0.0438729 0)
(0.696946 0.0372393 0)
(0.709861 0.0378552 0)
(0.71743 0.0390425 0)
(0.720978 0.034413 0)
(0.725621 0.0307926 0)
(0.736439 0.0269557 0)
(0.749803 0.0252466 0)
(0.753419 0.025777 0)
(0.75747 0.0216597 0)
(0.771559 0.0148125 0)
(0.784557 0.0148821 0)
(0.784829 0.0135833 0)
(0.794111 0.00462958 0)
(0.81536 -0.00325626 0)
(0.818015 -6.03378e-05 0)
(0.818439 -0.00391161 0)
(0.8353 -0.0160788 0)
(0.85933 -0.0254373 0)
(0.856008 -0.019236 0)
(0.876603 -0.0195861 0)
(0.893494 -0.0254242 0)
(0.912914 -0.0452305 0)
(0.952422 -0.0592891 0)
(0.940804 -0.0490926 0)
(0.922916 -0.0526482 0)
(0.914508 -0.0557407 0)
(0.926439 -0.0748648 0)
(0.974402 -0.100106 0)
(0.960466 -0.0935842 0)
(0.930734 -0.100868 0)
(0.918405 -0.106922 0)
(0.920614 -0.122611 0)
(0.955071 -0.142016 0)
(0.932946 -0.144817 0)
(0.90619 -0.160339 0)
(0.894651 -0.166833 0)
(0.898954 -0.19154 0)
(0.884528 -0.200208 0)
(0.86551 -0.209138 0)
(0.851478 -0.229099 0)
(0.836226 -0.241716 0)
(0.819988 -0.251639 0)
(0.801497 -0.26421 0)
(0.782761 -0.277753 0)
(0.761349 -0.292486 0)
(0.739307 -0.307047 0)
(0.715658 -0.320757 0)
(0.691068 -0.334058 0)
(0.665019 -0.34645 0)
(0.637685 -0.358003 0)
(0.608772 -0.36847 0)
(0.5783 -0.377746 0)
(0.546097 -0.385521 0)
(0.512157 -0.39151 0)
(0.476414 -0.395222 0)
(0.438976 -0.39619 0)
(0.399896 -0.393713 0)
(0.359382 -0.386917 0)
(0.31839 -0.374527 0)
(0.278843 -0.354281 0)
(0.249821 -0.325573 0)
(0.208984 -0.302501 0)
(0.165194 -0.269236 0)
(0.124319 -0.227572 0)
(0.0889471 -0.177647 0)
(0.0605701 -0.120286 0)
(0.0288148 -0.0604699 0)
(0.0176075 0.00822415 0)
(0.0209434 0.0773568 0)
(0.0414775 0.139592 0)
(0.0616265 0.200749 0)
(0.0911391 0.257319 0)
(0.129121 0.307779 0)
(0.173096 0.350627 0)
(0.216699 0.382137 0)
(0.248092 0.417275 0)
(0.291549 0.444581 0)
(0.33792 0.462952 0)
(0.38468 0.474217 0)
(0.430362 0.47973 0)
(0.474341 0.480509 0)
(0.515819 0.477805 0)
(0.554843 0.472195 0)
(0.591943 0.463994 0)
(0.627396 0.453432 0)
(0.660597 0.441441 0)
(0.692406 0.427683 0)
(0.721484 0.414362 0)
(0.749453 0.398524 0)
(0.775761 0.381018 0)
(0.800959 0.365527 0)
(0.823183 0.348552 0)
(0.845291 0.331994 0)
(0.866511 0.321795 0)
(0.882362 0.303277 0)
(0.904135 0.280641 0)
(0.929621 0.278225 0)
(0.927986 0.244729 0)
(0.945325 0.231739 0)
(0.980738 0.230498 0)
(0.960057 0.196943 0)
(0.968702 0.181938 0)
(1.0149 0.175705 0)
(1.01409 0.169622 0)
(0.98309 0.136414 0)
(0.992091 0.129944 0)
(1.02549 0.124007 0)
(1.04574 0.13175 0)
(0.993446 0.0988949 0)
(0.988288 0.0766131 0)
(1.00463 0.0769464 0)
(1.03633 0.0823672 0)
(1.01507 0.0785151 0)
(0.982051 0.0503763 0)
(0.985455 0.0435249 0)
(1.00038 0.0385782 0)
(1.02949 0.0406113 0)
(1.00994 0.0431743 0)
(0.975811 0.0238885 0)
(0.975459 0.0161187 0)
(0.987737 0.0114222 0)
(1.00508 0.0149243 0)
(0.985286 0.0185613 0)
(0.96255 -0.000997717 0)
(0.960832 -0.0118624 0)
(0.967867 -0.0156165 0)
(0.977064 -0.0097189 0)
(0.961174 -0.0155397 0)
(0.948361 -0.0310357 0)
(0.947936 -0.0366267 0)
(0.954485 -0.0308375 0)
(0.942147 -0.0300338 0)
(0.626576 -0.0179886 0)
(0.456842 -0.0205399 0)
(0.465511 -0.0277182 0)
(0.478305 -0.0301505 0)
(0.486657 -0.0302299 0)
(0.492945 -0.0308302 0)
(0.497175 -0.0334124 0)
(0.499684 -0.0373376 0)
(0.501443 -0.0399362 0)
(0.502328 -0.0404666 0)
(0.502636 -0.0390429 0)
(0.501879 -0.0387293 0)
(0.500379 -0.0401968 0)
(0.498156 -0.0435381 0)
(0.496681 -0.0455854 0)
(0.494991 -0.0466731 0)
(0.49007 -0.0460102 0)
(0.48089 -0.0435584 0)
(0.467372 -0.0426562 0)
(0.44954 -0.0432289 0)
(0.428603 -0.0431168 0)
(0.406957 -0.0404725 0)
(0.385885 -0.0375517 0)
(0.366163 -0.0366972 0)
(0.348779 -0.0362054 0)
(0.333673 -0.034794 0)
(0.320783 -0.0336353 0)
(0.309804 -0.0327946 0)
(0.300268 -0.0327628 0)
(0.291818 -0.0321106 0)
(0.284046 -0.031331 0)
(0.276574 -0.0310908 0)
(0.2694 -0.0305917 0)
(0.262422 -0.0304284 0)
(0.255658 -0.030301 0)
(0.249114 -0.02995 0)
(0.242759 -0.0295429 0)
(0.236499 -0.0292519 0)
(0.230293 -0.0288718 0)
(0.224096 -0.0284115 0)
(0.21791 -0.027956 0)
(0.211873 -0.0274475 0)
(0.205358 -0.0268464 0)
(0.198708 -0.0261447 0)
(0.192055 -0.025352 0)
(0.185611 -0.0246597 0)
(0.179435 -0.0239959 0)
(0.17358 -0.0232645 0)
(0.168057 -0.0225365 0)
(0.163139 -0.0220235 0)
(0.158406 -0.0213504 0)
(0.153339 -0.0205723 0)
(0.149133 -0.0203918 0)
(0.147055 -0.0202762 0)
(0.146173 -0.0202126 0)
(0.147121 -0.0224237 0)
(0.149425 -0.0326129 0)
(0.154173 -0.0534963 0)
(0.104336 -0.0851528 0)
(0.0480723 -0.080046 0)
(0.0223498 -0.0353039 0)
(0.087614 0.0511598 0)
(0.232323 0.122542 0)
(0.423108 0.135149 0)
(0.53375 0.0805552 0)
(0.53562 0.0785761 0)
(0.538909 0.0750413 0)
(0.542301 0.0732056 0)
(0.546134 0.0722884 0)
(0.551456 0.0724638 0)
(0.557818 0.072536 0)
(0.564369 0.073672 0)
(0.571338 0.0751981 0)
(0.579119 0.0761825 0)
(0.587125 0.0778336 0)
(0.59549 0.080179 0)
(0.60412 0.0821802 0)
(0.612623 0.0837955 0)
(0.621239 0.0848207 0)
(0.630129 0.0853853 0)
(0.639154 0.0846997 0)
(0.648281 0.0823562 0)
(0.6579 0.0798105 0)
(0.666562 0.0800081 0)
(0.675373 0.0821399 0)
(0.682971 0.0869911 0)
(0.688354 0.0877244 0)
(0.694113 0.0844094 0)
(0.701159 0.0788882 0)
(0.707501 0.0785298 0)
(0.714578 0.0829834 0)
(0.718723 0.0856328 0)
(0.723039 0.0826272 0)
(0.728763 0.0766213 0)
(0.734282 0.0762008 0)
(0.740955 0.0812004 0)
(0.744888 0.082365 0)
(0.749598 0.0771939 0)
(0.756608 0.0728359 0)
(0.763883 0.0756555 0)
(0.768982 0.0796824 0)
(0.773345 0.0761167 0)
(0.779892 0.070073 0)
(0.786407 0.0722151 0)
(0.790893 0.0763345 0)
(0.794216 0.0725509 0)
(0.79977 0.0666183 0)
(0.805691 0.0691474 0)
(0.809606 0.0719699 0)
(0.813603 0.0668086 0)
(0.820282 0.061875 0)
(0.826894 0.0658452 0)
(0.830203 0.0667442 0)
(0.8344 0.0602918 0)
(0.841562 0.0573478 0)
(0.847859 0.0612268 0)
(0.850964 0.059131 0)
(0.856794 0.0517225 0)
(0.865647 0.0520678 0)
(0.871236 0.0550951 0)
(0.87431 0.050779 0)
(0.880129 0.0439682 0)
(0.888662 0.04408 0)
(0.894626 0.0457086 0)
(0.898598 0.0394572 0)
(0.905048 0.0342707 0)
(0.913738 0.035229 0)
(0.918906 0.0335086 0)
(0.92311 0.0265431 0)
(0.930265 0.0219102 0)
(0.938981 0.0223996 0)
(0.943867 0.0189141 0)
(0.948988 0.0107797 0)
(0.957788 0.0070728 0)
(0.954879 0.00493332 0)
(0.956861 -0.00186514 0)
(0.994996 -0.0081056 0)
(1.00935 -0.0117428 0)
(1.01237 -0.0202311 0)
(1.01581 -0.0262423 0)
(1.01778 -0.0303728 0)
(1.01461 -0.0396941 0)
(1.01181 -0.0494034 0)
(1.0094 -0.0567624 0)
(1.00399 -0.0646352 0)
(1.00096 -0.071394 0)
(0.998012 -0.0807849 0)
(0.989786 -0.0896636 0)
(0.980988 -0.10059 0)
(0.973783 -0.112869 0)
(0.964742 -0.12087 0)
(0.953942 -0.132433 0)
(0.942977 -0.145146 0)
(0.929024 -0.158708 0)
(0.918347 -0.170685 0)
(0.901642 -0.1845 0)
(0.886178 -0.198566 0)
(0.871027 -0.212913 0)
(0.853875 -0.22736 0)
(0.83579 -0.242003 0)
(0.816827 -0.256547 0)
(0.795926 -0.270058 0)
(0.774785 -0.283497 0)
(0.751676 -0.296214 0)
(0.727924 -0.308574 0)
(0.702675 -0.320206 0)
(0.676224 -0.331295 0)
(0.648091 -0.341387 0)
(0.618389 -0.35055 0)
(0.586743 -0.358296 0)
(0.553111 -0.364495 0)
(0.517248 -0.368543 0)
(0.479245 -0.370165 0)
(0.439118 -0.368672 0)
(0.397039 -0.36349 0)
(0.352858 -0.353198 0)
(0.306117 -0.337242 0)
(0.257946 -0.316269 0)
(0.212758 -0.290053 0)
(0.170069 -0.256275 0)
(0.131896 -0.214684 0)
(0.0995539 -0.166548 0)
(0.074863 -0.113591 0)
(0.0581379 -0.0531213 0)
(0.0509431 0.0100392 0)
(0.049106 0.0734984 0)
(0.0570695 0.133909 0)
(0.0746556 0.190142 0)
(0.101574 0.244034 0)
(0.136731 0.293564 0)
(0.180294 0.335942 0)
(0.228215 0.371882 0)
(0.281101 0.400995 0)
(0.333886 0.423756 0)
(0.385361 0.439531 0)
(0.43523 0.448477 0)
(0.483237 0.452362 0)
(0.528784 0.451818 0)
(0.571712 0.447739 0)
(0.611789 0.44082 0)
(0.64924 0.431627 0)
(0.683943 0.420738 0)
(0.716807 0.408692 0)
(0.746699 0.395289 0)
(0.776121 0.381718 0)
(0.801837 0.366846 0)
(0.828322 0.352413 0)
(0.851965 0.336572 0)
(0.873193 0.319733 0)
(0.895117 0.302856 0)
(0.913715 0.286575 0)
(0.933124 0.270242 0)
(0.951074 0.253219 0)
(0.970052 0.237754 0)
(0.987297 0.221507 0)
(0.999726 0.205387 0)
(1.01556 0.191087 0)
(1.02895 0.174413 0)
(1.04049 0.160684 0)
(1.05417 0.147174 0)
(1.06061 0.135559 0)
(1.07032 0.122005 0)
(1.08122 0.111382 0)
(1.08909 0.0997838 0)
(1.09118 0.0907144 0)
(1.10005 0.0788782 0)
(1.10806 0.0712883 0)
(1.11045 0.0619516 0)
(1.11427 0.0512291 0)
(1.12043 0.0429937 0)
(1.12235 0.038603 0)
(1.12272 0.0306384 0)
(1.12936 0.0197246 0)
(1.1361 0.0111827 0)
(1.13578 0.00996063 0)
(1.13109 0.00507268 0)
(1.13397 -0.0047506 0)
(1.13966 -0.0131722 0)
(1.14357 -0.0188987 0)
(1.14034 -0.0186039 0)
(1.13614 -0.0228434 0)
(1.13886 -0.0320791 0)
(1.14333 -0.0377813 0)
(1.14361 -0.0377399 0)
(1.13844 -0.0410647 0)
(1.13908 -0.0491552 0)
(1.14098 -0.0531017 0)
(1.13997 -0.0529127 0)
(1.13203 -0.0506741 0)
(0.912201 -0.0385329 0)
(0.729281 -0.0459426 0)
(0.720708 -0.0468136 0)
(0.728837 -0.045826 0)
(0.733786 -0.0456345 0)
(0.737561 -0.0480557 0)
(0.740457 -0.0527859 0)
(0.74254 -0.0559192 0)
(0.743697 -0.0559802 0)
(0.742841 -0.054539 0)
(0.741544 -0.0544024 0)
(0.739124 -0.0569134 0)
(0.736536 -0.0614804 0)
(0.734198 -0.0646811 0)
(0.732195 -0.0659888 0)
(0.729372 -0.0643328 0)
(0.723562 -0.0618269 0)
(0.715811 -0.0609881 0)
(0.705234 -0.0639243 0)
(0.692381 -0.0668052 0)
(0.677284 -0.0655945 0)
(0.659357 -0.0623375 0)
(0.6405 -0.0618636 0)
(0.622106 -0.0626235 0)
(0.604915 -0.0619962 0)
(0.589037 -0.0606616 0)
(0.574649 -0.0602851 0)
(0.56195 -0.0606549 0)
(0.55057 -0.0602729 0)
(0.540069 -0.0595985 0)
(0.530025 -0.0593967 0)
(0.520338 -0.0593727 0)
(0.510804 -0.0594807 0)
(0.501386 -0.0591829 0)
(0.492061 -0.0586767 0)
(0.482774 -0.0582378 0)
(0.473526 -0.0578379 0)
(0.464301 -0.0573476 0)
(0.455024 -0.0568486 0)
(0.445694 -0.0563191 0)
(0.436344 -0.055728 0)
(0.427071 -0.0551218 0)
(0.417421 -0.0542959 0)
(0.407642 -0.0534258 0)
(0.397837 -0.0524317 0)
(0.388291 -0.0513627 0)
(0.379089 -0.0502865 0)
(0.370266 -0.049229 0)
(0.361881 -0.0482986 0)
(0.354077 -0.0473162 0)
(0.346663 -0.046294 0)
(0.339323 -0.0454886 0)
(0.332637 -0.0449326 0)
(0.327939 -0.045263 0)
(0.325099 -0.0456465 0)
(0.324302 -0.0468065 0)
(0.324378 -0.0457738 0)
(0.313726 -0.0631712 0)
(0.231437 -0.101357 0)
(0.117707 -0.0864678 0)
(0.0745998 -0.0248461 0)
(0.180526 0.0745688 0)
(0.327331 0.119721 0)
(0.515255 0.125037 0)
(0.582549 0.0866186 0)
(0.592615 0.088727 0)
(0.598496 0.0852245 0)
(0.603331 0.0841195 0)
(0.607398 0.0827473 0)
(0.612103 0.0820669 0)
(0.616993 0.0812048 0)
(0.622003 0.0809458 0)
(0.62782 0.0803896 0)
(0.634098 0.0801727 0)
(0.640487 0.0802323 0)
(0.647119 0.0807764 0)
(0.654012 0.0818158 0)
(0.661238 0.0834052 0)
(0.669269 0.0854658 0)
(0.677083 0.0886135 0)
(0.684253 0.0919331 0)
(0.6915 0.0928763 0)
(0.698219 0.0916161 0)
(0.705817 0.0873857 0)
(0.714608 0.0831826 0)
(0.721271 0.083269 0)
(0.728883 0.0880392 0)
(0.734047 0.0921185 0)
(0.738735 0.0904461 0)
(0.744737 0.0836502 0)
(0.751614 0.0801986 0)
(0.758005 0.0837696 0)
(0.76265 0.0891433 0)
(0.766282 0.0876215 0)
(0.771543 0.0801544 0)
(0.777395 0.0774445 0)
(0.783611 0.0823353 0)
(0.787562 0.0856933 0)
(0.79111 0.0811346 0)
(0.798001 0.074687 0)
(0.803764 0.0767769 0)
(0.807954 0.0817851 0)
(0.810965 0.078981 0)
(0.817118 0.0717748 0)
(0.822307 0.0732062 0)
(0.82622 0.0777691 0)
(0.829055 0.0742728 0)
(0.834863 0.0674658 0)
(0.840386 0.0697705 0)
(0.84433 0.0731021 0)
(0.847457 0.0674611 0)
(0.8534 0.0622951 0)
(0.859237 0.065959 0)
(0.863144 0.06719 0)
(0.867086 0.0595463 0)
(0.872645 0.0568645 0)
(0.878489 0.0612155 0)
(0.881964 0.0587938 0)
(0.887806 0.0506459 0)
(0.893703 0.0510067 0)
(0.899026 0.0535326 0)
(0.902928 0.0497525 0)
(0.909036 0.0419429 0)
(0.914929 0.0421256 0)
(0.920321 0.0430332 0)
(0.92496 0.0365016 0)
(0.930533 0.0309439 0)
(0.937196 0.0322109 0)
(0.942404 0.0298874 0)
(0.947266 0.0219074 0)
(0.952617 0.0175268 0)
(0.959931 0.0177664 0)
(0.965762 0.0127074 0)
(0.970831 0.00387766 0)
(0.965727 0.00149184 0)
(0.967538 -0.000896422 0)
(1.00614 -0.0099926 0)
(1.02054 -0.0154153 0)
(1.02362 -0.0213148 0)
(1.02173 -0.0294652 0)
(1.02333 -0.0333395 0)
(1.02343 -0.0396169 0)
(1.02032 -0.0494191 0)
(1.01474 -0.0598619 0)
(1.0076 -0.0667835 0)
(1.00366 -0.0728447 0)
(1.00158 -0.0834271 0)
(0.99419 -0.0930247 0)
(0.985216 -0.102772 0)
(0.973646 -0.11368 0)
(0.965597 -0.122204 0)
(0.958443 -0.135186 0)
(0.945784 -0.148117 0)
(0.93046 -0.1608 0)
(0.920167 -0.17233 0)
(0.904138 -0.186246 0)
(0.887896 -0.20043 0)
(0.871321 -0.214249 0)
(0.853344 -0.227981 0)
(0.834246 -0.241738 0)
(0.813921 -0.255008 0)
(0.792744 -0.268193 0)
(0.77114 -0.281211 0)
(0.747708 -0.293376 0)
(0.723742 -0.305194 0)
(0.698132 -0.316028 0)
(0.671386 -0.326305 0)
(0.64289 -0.335316 0)
(0.612932 -0.343347 0)
(0.58104 -0.349703 0)
(0.547317 -0.354442 0)
(0.511469 -0.356828 0)
(0.473676 -0.356716 0)
(0.433988 -0.353291 0)
(0.392914 -0.346162 0)
(0.351214 -0.334435 0)
(0.30999 -0.319467 0)
(0.267696 -0.301027 0)
(0.226973 -0.272585 0)
(0.187932 -0.238531 0)
(0.153065 -0.197574 0)
(0.123672 -0.151063 0)
(0.101425 -0.0994488 0)
(0.0885447 -0.0434484 0)
(0.0831058 0.0113338 0)
(0.080753 0.0664328 0)
(0.086598 0.122346 0)
(0.102675 0.176471 0)
(0.127426 0.227759 0)
(0.159585 0.275505 0)
(0.198204 0.316615 0)
(0.240425 0.353295 0)
(0.28706 0.379364 0)
(0.333769 0.400458 0)
(0.381853 0.417522 0)
(0.429943 0.428659 0)
(0.476919 0.434905 0)
(0.521838 0.436696 0)
(0.564399 0.434803 0)
(0.604427 0.430043 0)
(0.641994 0.422711 0)
(0.677009 0.413458 0)
(0.710236 0.402857 0)
(0.740518 0.390584 0)
(0.770312 0.378037 0)
(0.796267 0.363765 0)
(0.823241 0.349703 0)
(0.846941 0.334471 0)
(0.870486 0.319754 0)
(0.893579 0.303961 0)
(0.912258 0.288075 0)
(0.934313 0.271817 0)
(0.952847 0.254469 0)
(0.968317 0.238725 0)
(0.988626 0.224259 0)
(1.00296 0.207682 0)
(1.01628 0.191731 0)
(1.03117 0.178211 0)
(1.04422 0.164462 0)
(1.05481 0.148714 0)
(1.06306 0.137993 0)
(1.07447 0.126325 0)
(1.08685 0.113787 0)
(1.09385 0.100753 0)
(1.09621 0.0923584 0)
(1.10753 0.0842376 0)
(1.1166 0.0736875 0)
(1.12019 0.0622426 0)
(1.12344 0.0524305 0)
(1.12958 0.0484308 0)
(1.13496 0.0410201 0)
(1.13886 0.0294062 0)
(1.14406 0.0206552 0)
(1.14564 0.0164808 0)
(1.14729 0.0139896 0)
(1.15102 0.00342149 0)
(1.15579 -0.00503594 0)
(1.15843 -0.0101139 0)
(1.1575 -0.011801 0)
(1.15832 -0.0151521 0)
(1.16142 -0.026001 0)
(1.16413 -0.0314038 0)
(1.164 -0.0321989 0)
(1.16358 -0.035497 0)
(1.16508 -0.0446516 0)
(1.16698 -0.0488792 0)
(1.16545 -0.0483728 0)
(1.16416 -0.0522016 0)
(1.15927 -0.0557383 0)
(0.986972 -0.0398183 0)
(0.819351 -0.0479078 0)
(0.800536 -0.0454354 0)
(0.804439 -0.0470357 0)
(0.806863 -0.0525298 0)
(0.810067 -0.0577161 0)
(0.812279 -0.0590856 0)
(0.812584 -0.0568595 0)
(0.811335 -0.0560113 0)
(0.809721 -0.0587766 0)
(0.807518 -0.0647747 0)
(0.806342 -0.0689355 0)
(0.804407 -0.0701017 0)
(0.801729 -0.0677433 0)
(0.797194 -0.065228 0)
(0.793116 -0.0642983 0)
(0.787897 -0.0674126 0)
(0.782208 -0.0733512 0)
(0.77697 -0.0757144 0)
(0.769711 -0.0722631 0)
(0.759193 -0.0681881 0)
(0.747784 -0.0698879 0)
(0.735627 -0.0727281 0)
(0.723085 -0.0720088 0)
(0.710282 -0.0706066 0)
(0.697999 -0.0712066 0)
(0.686655 -0.072205 0)
(0.676213 -0.0719235 0)
(0.666343 -0.0714638 0)
(0.656926 -0.0719011 0)
(0.647894 -0.0724313 0)
(0.639012 -0.07255 0)
(0.630197 -0.0721114 0)
(0.621252 -0.0718291 0)
(0.612139 -0.0717952 0)
(0.602934 -0.0717693 0)
(0.593621 -0.071691 0)
(0.584209 -0.0715664 0)
(0.57467 -0.071345 0)
(0.56506 -0.0709954 0)
(0.555414 -0.0705686 0)
(0.545824 -0.0699236 0)
(0.536069 -0.0690238 0)
(0.526313 -0.068117 0)
(0.516593 -0.0670759 0)
(0.50715 -0.0659334 0)
(0.498046 -0.0648106 0)
(0.489325 -0.063667 0)
(0.480995 -0.0626374 0)
(0.473071 -0.0616718 0)
(0.465587 -0.0606261 0)
(0.458448 -0.0596318 0)
(0.451641 -0.0593547 0)
(0.446168 -0.0598216 0)
(0.441643 -0.0609895 0)
(0.43831 -0.0634185 0)
(0.433365 -0.0640049 0)
(0.413647 -0.080432 0)
(0.31739 -0.113931 0)
(0.19477 -0.102116 0)
(0.127859 -0.0220317 0)
(0.242179 0.0822205 0)
(0.405935 0.11371 0)
(0.551336 0.111025 0)
(0.601408 0.0878738 0)
(0.613339 0.091266 0)
(0.619945 0.0890154 0)
(0.62486 0.087556 0)
(0.628941 0.0866465 0)
(0.63308 0.0865553 0)
(0.63709 0.0865156 0)
(0.64109 0.0871366 0)
(0.645552 0.0875713 0)
(0.650249 0.0877721 0)
(0.655486 0.0873175 0)
(0.66119 0.086469 0)
(0.66771 0.085341 0)
(0.674783 0.084552 0)
(0.681792 0.084697 0)
(0.688519 0.0850721 0)
(0.695865 0.0866482 0)
(0.703414 0.0899481 0)
(0.71038 0.093187 0)
(0.717158 0.0936038 0)
(0.722763 0.091285 0)
(0.730354 0.0855454 0)
(0.737226 0.0846155 0)
(0.743828 0.0868779 0)
(0.749717 0.0916957 0)
(0.754754 0.0913751 0)
(0.759344 0.0857115 0)
(0.766131 0.0822391 0)
(0.771767 0.0836017 0)
(0.776925 0.0885692 0)
(0.78112 0.0880598 0)
(0.785306 0.0812366 0)
(0.791059 0.0789394 0)
(0.796648 0.0823413 0)
(0.801134 0.0850741 0)
(0.80452 0.0809256 0)
(0.810379 0.0757556 0)
(0.815307 0.0772074 0)
(0.81969 0.0809686 0)
(0.822716 0.0776688 0)
(0.827931 0.0722405 0)
(0.832721 0.0736268 0)
(0.837077 0.0768906 0)
(0.840117 0.0723884 0)
(0.845396 0.0677796 0)
(0.850577 0.0698506 0)
(0.854794 0.0714391 0)
(0.858265 0.0654169 0)
(0.863544 0.0624435 0)
(0.869079 0.0655718 0)
(0.873127 0.0648988 0)
(0.87742 0.057785 0)
(0.882612 0.0565893 0)
(0.888118 0.0596541 0)
(0.89162 0.055314 0)
(0.89689 0.0498157 0)
(0.902831 0.0499946 0)
(0.908404 0.0510992 0)
(0.912327 0.0454783 0)
(0.917359 0.0404319 0)
(0.923877 0.0413669 0)
(0.929316 0.0398685 0)
(0.933439 0.032198 0)
(0.938838 0.0292669 0)
(0.945607 0.0291852 0)
(0.95065 0.0255835 0)
(0.954692 0.0179202 0)
(0.961056 0.0153232 0)
(0.96872 0.0135991 0)
(0.972588 0.00565654 0)
(0.96667 0.000359359 0)
(0.969074 3.87183e-05 0)
(1.00718 -0.00854741 0)
(1.02086 -0.0162626 0)
(1.02469 -0.0215273 0)
(1.02255 -0.0284335 0)
(1.02275 -0.0345767 0)
(1.02343 -0.040498 0)
(1.02104 -0.047573 0)
(1.015 -0.0589112 0)
(1.00851 -0.0668265 0)
(1.00352 -0.0715333 0)
(1.00121 -0.0828368 0)
(0.993536 -0.0934217 0)
(0.984219 -0.103528 0)
(0.973716 -0.113704 0)
(0.964466 -0.122727 0)
(0.957924 -0.135328 0)
(0.945176 -0.147885 0)
(0.930373 -0.160583 0)
(0.919097 -0.172724 0)
(0.903364 -0.185895 0)
(0.887486 -0.199515 0)
(0.869921 -0.213353 0)
(0.851481 -0.226843 0)
(0.83205 -0.240383 0)
(0.811666 -0.253662 0)
(0.790312 -0.266661 0)
(0.767793 -0.279161 0)
(0.744144 -0.290799 0)
(0.719615 -0.302173 0)
(0.693449 -0.31229 0)
(0.666354 -0.321853 0)
(0.637363 -0.329861 0)
(0.607177 -0.336844 0)
(0.575143 -0.341847 0)
(0.5417 -0.34517 0)
(0.506517 -0.34595 0)
(0.469841 -0.344243 0)
(0.431592 -0.339131 0)
(0.392181 -0.330457 0)
(0.352188 -0.317656 0)
(0.312092 -0.301743 0)
(0.271126 -0.280387 0)
(0.233373 -0.249805 0)
(0.198359 -0.215486 0)
(0.168024 -0.175757 0)
(0.143001 -0.132141 0)
(0.125104 -0.0850603 0)
(0.115805 -0.0360254 0)
(0.111308 0.011488 0)
(0.108582 0.0594134 0)
(0.112494 0.10857 0)
(0.125534 0.157838 0)
(0.14682 0.205322 0)
(0.174243 0.250703 0)
(0.208581 0.291281 0)
(0.246954 0.328957 0)
(0.291071 0.357741 0)
(0.335858 0.379757 0)
(0.38134 0.39785 0)
(0.426883 0.410675 0)
(0.471687 0.418872 0)
(0.515063 0.422781 0)
(0.556683 0.422841 0)
(0.596487 0.42005 0)
(0.634138 0.414346 0)
(0.669629 0.406551 0)
(0.703349 0.397152 0)
(0.73433 0.385824 0)
(0.764679 0.374143 0)
(0.791761 0.360624 0)
(0.818958 0.347317 0)
(0.842464 0.332352 0)
(0.866887 0.317911 0)
(0.889989 0.302347 0)
(0.909531 0.286132 0)
(0.932609 0.270177 0)
(0.950219 0.25414 0)
(0.966461 0.239344 0)
(0.986612 0.222885 0)
(1.00195 0.20564 0)
(1.01528 0.191721 0)
(1.02943 0.178546 0)
(1.04312 0.163777 0)
(1.05367 0.147337 0)
(1.06188 0.13846 0)
(1.0734 0.125999 0)
(1.08628 0.112519 0)
(1.09366 0.0983087 0)
(1.09665 0.0922377 0)
(1.107 0.0849628 0)
(1.11706 0.0724367 0)
(1.12113 0.0602184 0)
(1.12381 0.0531837 0)
(1.12992 0.0493025 0)
(1.13647 0.038954 0)
(1.14129 0.0281254 0)
(1.14389 0.0231044 0)
(1.14528 0.0184398 0)
(1.14877 0.0123281 0)
(1.15456 0.00144322 0)
(1.15786 -0.0029515 0)
(1.15849 -0.00713727 0)
(1.15877 -0.0110335 0)
(1.16156 -0.0188283 0)
(1.16578 -0.0265593 0)
(1.16604 -0.0280232 0)
(1.16643 -0.0318787 0)
(1.16702 -0.0395191 0)
(1.16951 -0.0444133 0)
(1.16915 -0.0447267 0)
(1.16877 -0.0486624 0)
(1.16876 -0.0569246 0)
(1.16513 -0.0572426 0)
(1.00523 -0.0341459 0)
(0.842316 -0.0392039 0)
(0.825881 -0.0473238 0)
(0.828655 -0.0536249 0)
(0.831706 -0.0571781 0)
(0.833804 -0.0570697 0)
(0.833624 -0.0552879 0)
(0.83359 -0.0566095 0)
(0.831584 -0.0615463 0)
(0.830874 -0.0663566 0)
(0.82954 -0.0683451 0)
(0.827567 -0.0676677 0)
(0.824097 -0.0651409 0)
(0.820606 -0.0647765 0)
(0.816392 -0.0669309 0)
(0.811386 -0.0720301 0)
(0.808418 -0.0757362 0)
(0.804596 -0.076177 0)
(0.800158 -0.0722397 0)
(0.79408 -0.0693217 0)
(0.787345 -0.0724891 0)
(0.781044 -0.0763107 0)
(0.773649 -0.0752091 0)
(0.764762 -0.0737659 0)
(0.755739 -0.0753298 0)
(0.747092 -0.0769025 0)
(0.738724 -0.0768713 0)
(0.730433 -0.0768278 0)
(0.722369 -0.0778006 0)
(0.714625 -0.0786436 0)
(0.70703 -0.0787066 0)
(0.699394 -0.0784827 0)
(0.691602 -0.0787769 0)
(0.683679 -0.0792278 0)
(0.675535 -0.0795703 0)
(0.667156 -0.0797674 0)
(0.658526 -0.079841 0)
(0.6497 -0.0797838 0)
(0.640679 -0.0796215 0)
(0.631581 -0.0793334 0)
(0.622443 -0.0789495 0)
(0.613365 -0.0783876 0)
(0.604256 -0.0776158 0)
(0.595277 -0.0765327 0)
(0.586405 -0.0754963 0)
(0.577864 -0.0744759 0)
(0.569688 -0.0734729 0)
(0.561908 -0.0724016 0)
(0.554481 -0.0714101 0)
(0.547389 -0.0703775 0)
(0.540684 -0.069392 0)
(0.534349 -0.0686365 0)
(0.528201 -0.0683972 0)
(0.522779 -0.0689545 0)
(0.517572 -0.0703289 0)
(0.512375 -0.0732585 0)
(0.504605 -0.0716209 0)
(0.48012 -0.0791428 0)
(0.385506 -0.105163 0)
(0.25547 -0.0961365 0)
(0.195433 -0.0142533 0)
(0.303986 0.0872568 0)
(0.451486 0.10678 0)
(0.570035 0.0980478 0)
(0.608233 0.087796 0)
(0.619924 0.0894223 0)
(0.626343 0.0847763 0)
(0.631931 0.083351 0)
(0.636279 0.0830179 0)
(0.640318 0.0835174 0)
(0.644165 0.0841961 0)
(0.647988 0.0855528 0)
(0.652246 0.0868686 0)
(0.656839 0.0881647 0)
(0.661973 0.0889758 0)
(0.667386 0.0896391 0)
(0.673104 0.0900259 0)
(0.678833 0.089963 0)
(0.684841 0.0885111 0)
(0.691987 0.0867498 0)
(0.699469 0.0859634 0)
(0.706467 0.0864055 0)
(0.713666 0.0878817 0)
(0.720586 0.0914024 0)
(0.727129 0.092938 0)
(0.733473 0.0915125 0)
(0.740121 0.0861541 0)
(0.746661 0.0849173 0)
(0.752473 0.0863002 0)
(0.75806 0.0904138 0)
(0.763365 0.0903485 0)
(0.768565 0.0849228 0)
(0.774421 0.0823584 0)
(0.779475 0.0834528 0)
(0.784289 0.087407 0)
(0.788879 0.0862598 0)
(0.793714 0.0803273 0)
(0.798725 0.0790564 0)
(0.803525 0.0818589 0)
(0.807992 0.0833854 0)
(0.812366 0.0786154 0)
(0.817292 0.07572 0)
(0.821521 0.0774207 0)
(0.825542 0.079373 0)
(0.829645 0.0748945 0)
(0.834337 0.0720283 0)
(0.838634 0.0738975 0)
(0.842903 0.0750115 0)
(0.847278 0.0693379 0)
(0.851792 0.0672317 0)
(0.856265 0.069767 0)
(0.860632 0.0693237 0)
(0.865393 0.0632468 0)
(0.869898 0.0617675 0)
(0.874435 0.0643125 0)
(0.878943 0.0616844 0)
(0.883979 0.0562133 0)
(0.888551 0.0558824 0)
(0.892986 0.0567636 0)
(0.897891 0.0516926 0)
(0.903382 0.0482768 0)
(0.90853 0.0479183 0)
(0.913315 0.0473051 0)
(0.918186 0.0412996 0)
(0.923723 0.0386344 0)
(0.929344 0.0387189 0)
(0.934064 0.0348929 0)
(0.939158 0.0289871 0)
(0.94487 0.0263431 0)
(0.950407 0.0252969 0)
(0.954955 0.0196753 0)
(0.960909 0.0144664 0)
(0.967705 0.0111585 0)
(0.972698 0.00747378 0)
(0.966578 0.00035795 0)
(0.967747 -0.00186591 0)
(1.00677 -0.00680814 0)
(1.02047 -0.0153829 0)
(1.02326 -0.022862 0)
(1.02211 -0.0273523 0)
(1.02211 -0.0339973 0)
(1.02168 -0.0421056 0)
(1.01919 -0.0483749 0)
(1.01391 -0.0573948 0)
(1.00807 -0.0664873 0)
(1.00218 -0.0713827 0)
(0.999764 -0.0816891 0)
(0.992339 -0.0925028 0)
(0.982806 -0.103533 0)
(0.973337 -0.113598 0)
(0.96348 -0.12254 0)
(0.956101 -0.135186 0)
(0.944032 -0.146755 0)
(0.929452 -0.159552 0)
(0.917422 -0.172427 0)
(0.901439 -0.185743 0)
(0.885976 -0.199238 0)
(0.868002 -0.212555 0)
(0.849564 -0.226041 0)
(0.83001 -0.239504 0)
(0.809561 -0.252514 0)
(0.787822 -0.264891 0)
(0.765425 -0.27696 0)
(0.741177 -0.287962 0)
(0.716773 -0.298767 0)
(0.690157 -0.308006 0)
(0.663141 -0.316838 0)
(0.634018 -0.323797 0)
(0.603958 -0.329831 0)
(0.571953 -0.333635 0)
(0.538738 -0.335831 0)
(0.504011 -0.335333 0)
(0.468263 -0.33241 0)
(0.431552 -0.326087 0)
(0.39431 -0.316491 0)
(0.356858 -0.303005 0)
(0.319136 -0.285887 0)
(0.281225 -0.262738 0)
(0.247298 -0.23295 0)
(0.216069 -0.200147 0)
(0.189082 -0.162714 0)
(0.16649 -0.121792 0)
(0.150313 -0.0776316 0)
(0.141827 -0.0319117 0)
(0.137582 0.0124736 0)
(0.135275 0.0573463 0)
(0.139577 0.103401 0)
(0.151832 0.149487 0)
(0.171387 0.19353 0)
(0.195755 0.235613 0)
(0.226161 0.273983 0)
(0.260786 0.309664 0)
(0.300878 0.339474 0)
(0.342485 0.362365 0)
(0.384743 0.38091 0)
(0.427513 0.394606 0)
(0.470218 0.403986 0)
(0.512209 0.409422 0)
(0.552865 0.410879 0)
(0.592106 0.409695 0)
(0.629211 0.405357 0)
(0.664513 0.398979 0)
(0.698 0.390801 0)
(0.729052 0.380577 0)
(0.759514 0.369896 0)
(0.786737 0.357115 0)
(0.81462 0.344625 0)
(0.838388 0.330195 0)
(0.863092 0.31626 0)
(0.886108 0.301004 0)
(0.906182 0.28523 0)
(0.928967 0.270147 0)
(0.946293 0.254191 0)
(0.964238 0.238295 0)
(0.983871 0.221656 0)
(0.998258 0.20624 0)
(1.01291 0.192631 0)
(1.02729 0.177381 0)
(1.04064 0.161991 0)
(1.05148 0.148013 0)
(1.06011 0.138199 0)
(1.07147 0.124388 0)
(1.08384 0.111315 0)
(1.09043 0.0995052 0)
(1.09465 0.093857 0)
(1.10575 0.0837426 0)
(1.11537 0.0703559 0)
(1.1184 0.0618633 0)
(1.12139 0.055902 0)
(1.12923 0.0484954 0)
(1.13521 0.0370102 0)
(1.13898 0.0309098 0)
(1.1424 0.0249865 0)
(1.14475 0.0176032 0)
(1.14821 0.0104424 0)
(1.15256 0.00451424 0)
(1.15612 -0.000371717 0)
(1.15792 -0.0067179 0)
(1.15862 -0.0127033 0)
(1.16119 -0.0200042 0)
(1.16383 -0.0227696 0)
(1.16561 -0.0268299 0)
(1.16661 -0.0343206 0)
(1.16686 -0.04034 0)
(1.16805 -0.0407921 0)
(1.16929 -0.0441386 0)
(1.16946 -0.0515261 0)
(1.1689 -0.0571654 0)
(1.16476 -0.0545601 0)
(1.00969 -0.0343869 0)
(0.847357 -0.0416931 0)
(0.8341 -0.0529877 0)
(0.837702 -0.0552647 0)
(0.83951 -0.0548026 0)
(0.84037 -0.0543111 0)
(0.840459 -0.0566513 0)
(0.839689 -0.0617261 0)
(0.839687 -0.0650293 0)
(0.838334 -0.0661267 0)
(0.836147 -0.0646716 0)
(0.833088 -0.063936 0)
(0.830149 -0.065007 0)
(0.825785 -0.0686733 0)
(0.82293 -0.0732492 0)
(0.819564 -0.0751401 0)
(0.815678 -0.0748087 0)
(0.811405 -0.0714675 0)
(0.806951 -0.0704159 0)
(0.801634 -0.0732217 0)
(0.798193 -0.077008 0)
(0.794089 -0.0757088 0)
(0.788551 -0.0739618 0)
(0.782319 -0.0762767 0)
(0.77625 -0.0781836 0)
(0.770032 -0.07819 0)
(0.763542 -0.0784816 0)
(0.756988 -0.0798741 0)
(0.750498 -0.0809109 0)
(0.744068 -0.0809814 0)
(0.737503 -0.0811715 0)
(0.730875 -0.0819023 0)
(0.724134 -0.0826486 0)
(0.717196 -0.0831547 0)
(0.709938 -0.0834702 0)
(0.702374 -0.0836013 0)
(0.694475 -0.0836719 0)
(0.686305 -0.0836425 0)
(0.677898 -0.0835155 0)
(0.669408 -0.0832566 0)
(0.660882 -0.0829247 0)
(0.652438 -0.0824653 0)
(0.64403 -0.0818064 0)
(0.635781 -0.0810119 0)
(0.627713 -0.0801429 0)
(0.620059 -0.0791845 0)
(0.612813 -0.078165 0)
(0.605988 -0.0770382 0)
(0.599495 -0.0760418 0)
(0.593304 -0.0751189 0)
(0.587453 -0.0743243 0)
(0.581939 -0.0735919 0)
(0.576501 -0.0734704 0)
(0.571342 -0.0738962 0)
(0.565916 -0.0748781 0)
(0.559347 -0.0777715 0)
(0.549215 -0.0779269 0)
(0.52418 -0.0824597 0)
(0.43688 -0.101 0)
(0.312114 -0.0967615 0)
(0.247511 -0.0130479 0)
(0.347036 0.0854027 0)
(0.481091 0.0962166 0)
(0.575566 0.0883605 0)
(0.608283 0.0848266 0)
(0.619996 0.0834476 0)
(0.627388 0.0814432 0)
(0.633739 0.0811455 0)
(0.638574 0.0807136 0)
(0.64271 0.080717 0)
(0.646518 0.0806629 0)
(0.650512 0.081469 0)
(0.654853 0.082376 0)
(0.659421 0.0838759 0)
(0.664379 0.0857279 0)
(0.669659 0.0875698 0)
(0.675221 0.0890631 0)
(0.680965 0.0901813 0)
(0.687273 0.0907541 0)
(0.693719 0.0905963 0)
(0.700744 0.0887282 0)
(0.708119 0.0868015 0)
(0.71533 0.086555 0)
(0.722188 0.0871657 0)
(0.728801 0.0897077 0)
(0.734784 0.0920416 0)
(0.741276 0.0908518 0)
(0.7479 0.086548 0)
(0.75405 0.0850604 0)
(0.759522 0.0857806 0)
(0.764579 0.0891533 0)