# p  FACE_DATA 249
#  x  y  z  p
0.999981 -0.000213631 0.5 1.10387
0.999845 -0.000663127 0.5 1.1024
0.99948 -0.00110792 0.5 1.1027
0.998835 -0.00139797 0.5 1.10654
0.99794 -0.00154865 0.5 1.10434
0.996827 -0.00170419 0.5 1.10077
0.995451 -0.00189636 0.5 1.09631
0.993749 -0.00213358 0.5 1.09158
0.991644 -0.0024263 0.5 1.08681
0.989039 -0.00278739 0.5 1.08153
0.986181 -0.00318229 0.5 1.07566
0.983194 -0.00359364 0.5 1.07029
0.979871 -0.00404935 0.5 1.06744
0.976149 -0.00455766 0.5 1.06697
0.971946 -0.00512882 0.5 1.06861
0.967167 -0.00577474 0.5 1.06968
0.961704 -0.00650854 0.5 1.06872
0.955448 -0.00734296 0.5 1.06467
0.948306 -0.008288 0.5 1.05949
0.940222 -0.00934793 0.5 1.05333
0.93121 -0.0105177 0.5 1.04655
0.921364 -0.0117817 0.5 1.03957
0.910835 -0.0131174 0.5 1.0326
0.899795 -0.0145004 0.5 1.02581
0.888401 -0.0159093 0.5 1.01926
0.876775 -0.0173279 0.5 1.01299
0.865003 -0.0187451 0.5 1.00696
0.853139 -0.0201537 0.5 1.00118
0.84122 -0.0215496 0.5 0.99561
0.829266 -0.0229301 0.5 0.990229
0.817291 -0.0242937 0.5 0.985017
0.805302 -0.0256397 0.5 0.979953
0.793304 -0.0269675 0.5 0.975019
0.7813 -0.0282768 0.5 0.970196
0.769293 -0.0295674 0.5 0.965469
0.757283 -0.030839 0.5 0.960817
0.745271 -0.0320915 0.5 0.956228
0.733259 -0.0333248 0.5 0.951684
0.721246 -0.0345385 0.5 0.947172
0.709233 -0.0357325 0.5 0.942674
0.697222 -0.0369064 0.5 0.938185
0.685211 -0.03806 0.5 0.933686
0.673203 -0.0391929 0.5 0.929174
0.661197 -0.0403047 0.5 0.924634
0.649194 -0.0413949 0.5 0.920064
0.637194 -0.0424632 0.5 0.915452
0.625198 -0.0435089 0.5 0.910797
0.613207 -0.0445315 0.5 0.906089
0.601221 -0.0455305 0.5 0.901331
0.58924 -0.0465051 0.5 0.89651
0.577265 -0.0474547 0.5 0.891628
0.565296 -0.0483784 0.5 0.886671
0.553335 -0.0492757 0.5 0.881631
0.541382 -0.0501455 0.5 0.876484
0.529437 -0.050987 0.5 0.871207
0.517502 -0.0517993 0.5 0.865757
0.505576 -0.0525814 0.5 0.860087
0.493661 -0.0533322 0.5 0.854124
0.481757 -0.0540507 0.5 0.8478
0.469865 -0.0547356 0.5 0.841032
0.457986 -0.0553858 0.5 0.833763
0.446121 -0.0560001 0.5 0.825941
0.43427 -0.0565769 0.5 0.817593
0.422436 -0.057115 0.5 0.808781
0.410617 -0.0576129 0.5 0.79968
0.398817 -0.0580691 0.5 0.790509
0.387036 -0.0584819 0.5 0.781584
0.375275 -0.0588496 0.5 0.773207
0.363536 -0.0591705 0.5 0.765693
0.35182 -0.0594427 0.5 0.759239
0.340129 -0.0596642 0.5 0.753973
0.328465 -0.0598331 0.5 0.749895
0.316829 -0.0599471 0.5 0.746907
0.305225 -0.0600041 0.5 0.744879
0.293654 -0.0600016 0.5 0.743688
0.282119 -0.0599373 0.5 0.743055
0.270623 -0.0598085 0.5 0.742731
0.25917 -0.0596124 0.5 0.742583
0.247764 -0.0593463 0.5 0.742534
0.23641 -0.0590071 0.5 0.74356
0.225112 -0.0585917 0.5 0.745515
0.213877 -0.0580969 0.5 0.748304
0.202712 -0.0575192 0.5 0.751892
0.191628 -0.0568553 0.5 0.756248
0.180634 -0.0561016 0.5 0.761371
0.169744 -0.0552547 0.5 0.767241
0.158975 -0.0543114 0.5 0.773865
0.148349 -0.0532692 0.5 0.781262
0.137893 -0.052126 0.5 0.789412
0.12764 -0.0508813 0.5 0.79835
0.117631 -0.0495365 0.5 0.808085
0.107919 -0.0480958 0.5 0.818625
0.0985599 -0.046567 0.5 0.829964
0.0896181 -0.0449618 0.5 0.842084
0.0811569 -0.0432962 0.5 0.854959
0.0732325 -0.0415892 0.5 0.868556
0.0658863 -0.0398614 0.5 0.882824
0.0591391 -0.0381327 0.5 0.897733
0.0529893 -0.0364202 0.5 0.913261
0.0474153 -0.0347371 0.5 0.929388
0.0423804 -0.0330918 0.5 0.946139
0.037839 -0.0314889 0.5 0.963553
0.0337425 -0.0299293 0.5 0.981695
0.0300429 -0.0284117 0.5 1.00061
0.0266953 -0.0269333 0.5 1.0204
0.0236597 -0.02549 0.5 1.04115
0.0209008 -0.0240773 0.5 1.06297
0.0183884 -0.0226906 0.5 1.08597
0.0160966 -0.0213252 0.5 1.11032
0.0140039 -0.0199765 0.5 1.1361
0.0120924 -0.0186401 0.5 1.16339
0.0103474 -0.0173119 0.5 1.19225
0.00875716 -0.0159881 0.5 1.22273
0.00731248 -0.0146652 0.5 1.25482
0.00600641 -0.0133402 0.5 1.28819
0.00483403 -0.0120108 0.5 1.32242
0.00379219 -0.0106756 0.5 1.35684
0.00287911 -0.00933401 0.5 1.39049
0.00209395 -0.0079868 0.5 1.42208
0.00143637 -0.00663621 0.5 1.45019
0.000905848 -0.00528614 0.5 1.47333
0.000500793 -0.0039413 0.5 1.49021
0.000218398 -0.00260861 0.5 1.49882
5.37248e-05 -0.00129588 0.5 1.50056
9.09786e-18 0 0.5 1.50075
5.37248e-05 0.00129588 0.5 1.49633
0.000218398 0.00260861 0.5 1.48287
0.000500793 0.0039413 0.5 1.45999
0.000905848 0.00528614 0.5 1.43036
0.00143637 0.00663621 0.5 1.39559
0.00209395 0.0079868 0.5 1.35695
0.00287911 0.00933401 0.5 1.31625
0.00379219 0.0106756 0.5 1.27493
0.00483403 0.0120108 0.5 1.23429
0.00600641 0.0133402 0.5 1.19503
0.00731248 0.0146652 0.5 1.15795
0.00875716 0.0159881 0.5 1.12311
0.0103474 0.0173119 0.5 1.09056
0.0120924 0.0186401 0.5 1.06025
0.0140039 0.0199765 0.5 1.03208
0.0160966 0.0213252 0.5 1.00578
0.0183884 0.0226906 0.5 0.981233
0.0209008 0.0240773 0.5 0.958251
0.0236597 0.02549 0.5 0.936696
0.0266953 0.0269333 0.5 0.916453
0.0300429 0.0284117 0.5 0.897395
0.0337425 0.0299293 0.5 0.879306
0.037839 0.0314889 0.5 0.862088
0.0423804 0.0330918 0.5 0.845696
0.0474153 0.0347371 0.5 0.830032
0.0529893 0.0364202 0.5 0.815023
0.0591391 0.0381327 0.5 0.80065
0.0658863 0.0398614 0.5 0.786899
0.0732325 0.0415892 0.5 0.773747
0.0811569 0.0432962 0.5 0.76122
0.0896181 0.0449618 0.5 0.749329
0.0985599 0.046567 0.5 0.738075
0.107919 0.0480958 0.5 0.727463
0.117631 0.0495365 0.5 0.717501
0.12764 0.0508813 0.5 0.708146
0.137893 0.052126 0.5 0.699372
0.148349 0.0532692 0.5 0.691195
0.158975 0.0543114 0.5 0.683581
0.169744 0.0552547 0.5 0.676506
0.180634 0.0561016 0.5 0.669941
0.191628 0.0568553 0.5 0.663871
0.202712 0.0575192 0.5 0.658283
0.213877 0.0580969 0.5 0.653166
0.225112 0.0585917 0.5 0.648493
0.23641 0.0590071 0.5 0.644286
0.247764 0.0593463 0.5 0.640534
0.25917 0.0596124 0.5 0.637269
0.270623 0.0598085 0.5 0.634499
0.282119 0.0599373 0.5 0.632343
0.293654 0.0600016 0.5 0.630828
0.305225 0.0600041 0.5 0.630277
0.316829 0.0599471 0.5 0.630352
0.328465 0.0598331 0.5 0.630553
0.340129 0.0596642 0.5 0.630977
0.35182 0.0594427 0.5 0.63181
0.363536 0.0591705 0.5 0.633393
0.375275 0.0588496 0.5 0.636103
0.387036 0.0584819 0.5 0.640412
0.398817 0.0580691 0.5 0.647001
0.410617 0.0576129 0.5 0.656767
0.422436 0.057115 0.5 0.670876
0.43427 0.0565769 0.5 0.690894
0.446121 0.0560001 0.5 0.718262
0.457986 0.0553858 0.5 0.752966
0.469865 0.0547356 0.5 0.790351
0.481757 0.0540507 0.5 0.82243
0.493661 0.0533322 0.5 0.845121
0.505576 0.0525814 0.5 0.859534
0.517502 0.0517993 0.5 0.868497
0.529437 0.050987 0.5 0.874353
0.541382 0.0501455 0.5 0.878675
0.553335 0.0492757 0.5 0.882317
0.565296 0.0483784 0.5 0.885805
0.577265 0.0474547 0.5 0.889337
0.58924 0.0465051 0.5 0.893069
0.601221 0.0455305 0.5 0.896987
0.613207 0.0445315 0.5 0.901141
0.625198 0.0435089 0.5 0.905463
0.637194 0.0424632 0.5 0.909993
0.649194 0.0413949 0.5 0.914654
0.661197 0.0403047 0.5 0.919503
0.673203 0.0391929 0.5 0.924464
0.685211 0.03806 0.5 0.92962
0.697222 0.0369064 0.5 0.934902
0.709233 0.0357325 0.5 0.940423
0.721246 0.0345385 0.5 0.946126
0.733259 0.0333248 0.5 0.952183
0.745271 0.0320915 0.5 0.958567
0.757283 0.030839 0.5 0.965576
0.769293 0.0295674 0.5 0.973261
0.7813 0.0282768 0.5 0.982192
0.793304 0.0269675 0.5 0.992979
0.805302 0.0256397 0.5 1.00645
0.817291 0.0242937 0.5 1.00467
0.829266 0.0229301 0.5 0.998834
0.84122 0.0215496 0.5 0.999795
0.853139 0.0201537 0.5 0.996406
0.865003 0.0187451 0.5 0.987175
0.876775 0.0173279 0.5 0.97335
0.888401 0.0159093 0.5 0.959243
0.899795 0.0145004 0.5 0.952698
0.910835 0.0131174 0.5 0.952695
0.921364 0.0117817 0.5 0.956868
0.93121 0.0105177 0.5 0.964399
0.940222 0.00934793 0.5 0.977131
0.948306 0.008288 0.5 0.993114
0.955448 0.00734296 0.5 1.00969
0.961704 0.00650854 0.5 1.02493
0.967167 0.00577474 0.5 1.03772
0.971946 0.00512882 0.5 1.04786
0.976149 0.00455766 0.5 1.05578
0.979871 0.00404935 0.5 1.06213
0.983194 0.00359364 0.5 1.06744
0.986181 0.00318229 0.5 1.07213
0.989039 0.00278739 0.5 1.07678
0.991644 0.0024263 0.5 1.08136
0.993749 0.00213358 0.5 1.08557
0.995451 0.00189636 0.5 1.08941
0.996827 0.00170419 0.5 1.09264
0.99794 0.00154865 0.5 1.09506
0.998835 0.00139797 0.5 1.09611
0.99948 0.00110792 0.5 1.0956
0.999845 0.000663127 0.5 1.09665
0.999981 0.000213631 0.5 1.10217
