# p  FACE_DATA 249
#  x  y  z  p
0.999981 -0.000213631 0.5 1.13086
0.999845 -0.000663127 0.5 1.13029
0.99948 -0.00110792 0.5 1.13118
0.998835 -0.00139797 0.5 1.13174
0.99794 -0.00154865 0.5 1.13046
0.996827 -0.00170419 0.5 1.12577
0.995451 -0.00189636 0.5 1.11896
0.993749 -0.00213358 0.5 1.11135
0.991644 -0.0024263 0.5 1.10201
0.989039 -0.00278739 0.5 1.09116
0.986181 -0.00318229 0.5 1.07727
0.983194 -0.00359364 0.5 1.06285
0.979871 -0.00404935 0.5 1.04934
0.976149 -0.00455766 0.5 1.03534
0.971946 -0.00512882 0.5 1.02276
0.967167 -0.00577474 0.5 1.01202
0.961704 -0.00650854 0.5 1.0043
0.955448 -0.00734296 0.5 0.998151
0.948306 -0.008288 0.5 0.993246
0.940222 -0.00934793 0.5 0.992336
0.93121 -0.0105177 0.5 1.01168
0.921364 -0.0117817 0.5 1.03322
0.910835 -0.0131174 0.5 1.0404
0.899795 -0.0145004 0.5 1.03738
0.888401 -0.0159093 0.5 1.03386
0.876775 -0.0173279 0.5 1.03186
0.865003 -0.0187451 0.5 1.03097
0.853139 -0.0201537 0.5 1.02791
0.84122 -0.0215496 0.5 1.02158
0.829266 -0.0229301 0.5 1.01671
0.817291 -0.0242937 0.5 1.01455
0.805302 -0.0256397 0.5 1.01385
0.793304 -0.0269675 0.5 1.01217
0.7813 -0.0282768 0.5 1.00784
0.769293 -0.0295674 0.5 1.00195
0.757283 -0.030839 0.5 0.993845
0.745271 -0.0320915 0.5 0.983367
0.733259 -0.0333248 0.5 0.97083
0.721246 -0.0345385 0.5 0.958224
0.709233 -0.0357325 0.5 0.947105
0.697222 -0.0369064 0.5 0.937836
0.685211 -0.03806 0.5 0.930284
0.673203 -0.0391929 0.5 0.924185
0.661197 -0.0403047 0.5 0.918724
0.649194 -0.0413949 0.5 0.91361
0.637194 -0.0424632 0.5 0.90847
0.625198 -0.0435089 0.5 0.903492
0.613207 -0.0445315 0.5 0.89914
0.601221 -0.0455305 0.5 0.89567
0.58924 -0.0465051 0.5 0.892772
0.577265 -0.0474547 0.5 0.890141
0.565296 -0.0483784 0.5 0.887708
0.553335 -0.0492757 0.5 0.885714
0.541382 -0.0501455 0.5 0.883657
0.529437 -0.050987 0.5 0.88172
0.517502 -0.0517993 0.5 0.879738
0.505576 -0.0525814 0.5 0.878
0.493661 -0.0533322 0.5 0.876609
0.481757 -0.0540507 0.5 0.87574
0.469865 -0.0547356 0.5 0.874852
0.457986 -0.0553858 0.5 0.869904
0.446121 -0.0560001 0.5 0.848729
0.43427 -0.0565769 0.5 0.800325
0.422436 -0.057115 0.5 0.773976
0.410617 -0.0576129 0.5 0.761069
0.398817 -0.0580691 0.5 0.755736
0.387036 -0.0584819 0.5 0.753784
0.375275 -0.0588496 0.5 0.752943
0.363536 -0.0591705 0.5 0.75242
0.35182 -0.0594427 0.5 0.752006
0.340129 -0.0596642 0.5 0.751641
0.328465 -0.0598331 0.5 0.750993
0.316829 -0.0599471 0.5 0.749661
0.305225 -0.0600041 0.5 0.748002
0.293654 -0.0600016 0.5 0.745841
0.282119 -0.0599373 0.5 0.744823
0.270623 -0.0598085 0.5 0.744202
0.25917 -0.0596124 0.5 0.74394
0.247764 -0.0593463 0.5 0.743824
0.23641 -0.0590071 0.5 0.743789
0.225112 -0.0585917 0.5 0.744347
0.213877 -0.0580969 0.5 0.745316
0.202712 -0.0575192 0.5 0.74728
0.191628 -0.0568553 0.5 0.749835
0.180634 -0.0561016 0.5 0.753544
0.169744 -0.0552547 0.5 0.757956
0.158975 -0.0543114 0.5 0.763052
0.148349 -0.0532692 0.5 0.769325
0.137893 -0.052126 0.5 0.77687
0.12764 -0.0508813 0.5 0.785595
0.117631 -0.0495365 0.5 0.7952
0.107919 -0.0480958 0.5 0.805628
0.0985599 -0.046567 0.5 0.816354
0.0896181 -0.0449618 0.5 0.827254
0.0811569 -0.0432962 0.5 0.837836
0.0732325 -0.0415892 0.5 0.847854
0.0658863 -0.0398614 0.5 0.857287
0.0591391 -0.0381327 0.5 0.866865
0.0529893 -0.0364202 0.5 0.878331
0.0474153 -0.0347371 0.5 0.892998
0.0423804 -0.0330918 0.5 0.910439
0.037839 -0.0314889 0.5 0.929243
0.0337425 -0.0299293 0.5 0.948672
0.0300429 -0.0284117 0.5 0.968397
0.0266953 -0.0269333 0.5 0.98853
0.0236597 -0.02549 0.5 1.00933
0.0209008 -0.0240773 0.5 1.031
0.0183884 -0.0226906 0.5 1.05367
0.0160966 -0.0213252 0.5 1.07744
0.0140039 -0.0199765 0.5 1.1025
0.0120924 -0.0186401 0.5 1.12888
0.0103474 -0.0173119 0.5 1.15659
0.00875716 -0.0159881 0.5 1.18563
0.00731248 -0.0146652 0.5 1.21619
0.00600641 -0.0133402 0.5 1.24836
0.00483403 -0.0120108 0.5 1.28199
0.00379219 -0.0106756 0.5 1.31545
0.00287911 -0.00933401 0.5 1.34755
0.00209395 -0.0079868 0.5 1.37801
0.00143637 -0.00663621 0.5 1.40576
0.000905848 -0.00528614 0.5 1.4295
0.000500793 -0.0039413 0.5 1.44685
0.000218398 -0.00260861 0.5 1.45551
5.37248e-05 -0.00129588 0.5 1.45474
9.09786e-18 0 0.5 1.45127
5.37248e-05 0.00129588 0.5 1.4422
0.000218398 0.00260861 0.5 1.42463
0.000500793 0.0039413 0.5 1.39994
0.000905848 0.00528614 0.5 1.36978
0.00143637 0.00663621 0.5 1.33542
0.00209395 0.0079868 0.5 1.29813
0.00287911 0.00933401 0.5 1.25868
0.00379219 0.0106756 0.5 1.21835
0.00483403 0.0120108 0.5 1.17942
0.00600641 0.0133402 0.5 1.1428
0.00731248 0.0146652 0.5 1.10851
0.00875716 0.0159881 0.5 1.07641
0.0103474 0.0173119 0.5 1.04648
0.0120924 0.0186401 0.5 1.01874
0.0140039 0.0199765 0.5 0.992908
0.0160966 0.0213252 0.5 0.968882
0.0183884 0.0226906 0.5 0.946476
0.0209008 0.0240773 0.5 0.925489
0.0236597 0.02549 0.5 0.905789
0.0266953 0.0269333 0.5 0.887378
0.0300429 0.0284117 0.5 0.870025
0.0337425 0.0299293 0.5 0.853649
0.037839 0.0314889 0.5 0.838158
0.0423804 0.0330918 0.5 0.823434
0.0474153 0.0347371 0.5 0.809501
0.0529893 0.0364202 0.5 0.796216
0.0591391 0.0381327 0.5 0.783477
0.0658863 0.0398614 0.5 0.771411
0.0732325 0.0415892 0.5 0.759565
0.0811569 0.0432962 0.5 0.748279
0.0896181 0.0449618 0.5 0.737717
0.0985599 0.046567 0.5 0.726643
0.107919 0.0480958 0.5 0.716454
0.117631 0.0495365 0.5 0.707248
0.12764 0.0508813 0.5 0.696555
0.137893 0.052126 0.5 0.68644
0.148349 0.0532692 0.5 0.679014
0.158975 0.0543114 0.5 0.673453
0.169744 0.0552547 0.5 0.666315
0.180634 0.0561016 0.5 0.658078
0.191628 0.0568553 0.5 0.649753
0.202712 0.0575192 0.5 0.642924
0.213877 0.0580969 0.5 0.63847
0.225112 0.0585917 0.5 0.635324
0.23641 0.0590071 0.5 0.634076
0.247764 0.0593463 0.5 0.633859
0.25917 0.0596124 0.5 0.633475
0.270623 0.0598085 0.5 0.63204
0.282119 0.0599373 0.5 0.630659
0.293654 0.0600016 0.5 0.629367
0.305225 0.0600041 0.5 0.629342
0.316829 0.0599471 0.5 0.629482
0.328465 0.0598331 0.5 0.62989
0.340129 0.0596642 0.5 0.63076
0.35182 0.0594427 0.5 0.632137
0.363536 0.0591705 0.5 0.634458
0.375275 0.0588496 0.5 0.638573
0.387036 0.0584819 0.5 0.642649
0.398817 0.0580691 0.5 0.647416
0.410617 0.0576129 0.5 0.651262
0.422436 0.057115 0.5 0.656076
0.43427 0.0565769 0.5 0.659887
0.446121 0.0560001 0.5 0.665612
0.457986 0.0553858 0.5 0.677327
0.469865 0.0547356 0.5 0.701021
0.481757 0.0540507 0.5 0.750278
0.493661 0.0533322 0.5 0.852032
0.505576 0.0525814 0.5 1.05344
0.517502 0.0517993 0.5 1.026
0.529437 0.050987 0.5 1.00082
0.541382 0.0501455 0.5 0.988171
0.553335 0.0492757 0.5 0.958609
0.565296 0.0483784 0.5 0.938224
0.577265 0.0474547 0.5 0.92776
0.58924 0.0465051 0.5 0.924467
0.601221 0.0455305 0.5 0.924995
0.613207 0.0445315 0.5 0.92616
0.625198 0.0435089 0.5 0.928148
0.637194 0.0424632 0.5 0.926948
0.649194 0.0413949 0.5 0.927181
0.661197 0.0403047 0.5 0.928896
0.673203 0.0391929 0.5 0.935397
0.685211 0.03806 0.5 0.951901
0.697222 0.0369064 0.5 0.966673
0.709233 0.0357325 0.5 0.999579
0.721246 0.0345385 0.5 1.01411
0.733259 0.0333248 0.5 1.02411
0.745271 0.0320915 0.5 1.03218
0.757283 0.030839 0.5 1.0391
0.769293 0.0295674 0.5 1.03907
0.7813 0.0282768 0.5 1.03358
0.793304 0.0269675 0.5 0.999241
0.805302 0.0256397 0.5 0.921335
0.817291 0.0242937 0.5 0.887037
0.829266 0.0229301 0.5 0.877795
0.84122 0.0215496 0.5 0.882359
0.853139 0.0201537 0.5 0.901207
0.865003 0.0187451 0.5 0.932435
0.876775 0.0173279 0.5 0.952995
0.888401 0.0159093 0.5 0.967692
0.899795 0.0145004 0.5 0.989008
0.910835 0.0131174 0.5 1.0037
0.921364 0.0117817 0.5 1.00899
0.93121 0.0105177 0.5 1.0094
0.940222 0.00934793 0.5 1.00835
0.948306 0.008288 0.5 1.00965
0.955448 0.00734296 0.5 1.01484
0.961704 0.00650854 0.5 1.02755
0.967167 0.00577474 0.5 1.05545
0.971946 0.00512882 0.5 1.09357
0.976149 0.00455766 0.5 1.11268
0.979871 0.00404935 0.5 1.11839
0.983194 0.00359364 0.5 1.11878
0.986181 0.00318229 0.5 1.11761
0.989039 0.00278739 0.5 1.11627
0.991644 0.0024263 0.5 1.11601
0.993749 0.00213358 0.5 1.11739
0.995451 0.00189636 0.5 1.12026
0.996827 0.00170419 0.5 1.12321
0.99794 0.00154865 0.5 1.12685
0.998835 0.00139797 0.5 1.12942
0.99948 0.00110792 0.5 1.12977
0.999845 0.000663127 0.5 1.12925
0.999981 0.000213631 0.5 1.13057
