# p  FACE_DATA 249
#  x  y  z  p
0.999981 -0.000213631 0.5 1.15286
0.999845 -0.000663127 0.5 1.12101
0.99948 -0.00110792 0.5 1.05356
0.998835 -0.00139797 0.5 1.11727
0.99794 -0.00154865 0.5 1.13328
0.996827 -0.00170419 0.5 1.14217
0.995451 -0.00189636 0.5 1.14226
0.993749 -0.00213358 0.5 1.14046
0.991644 -0.0024263 0.5 1.13684
0.989039 -0.00278739 0.5 1.1317
0.986181 -0.00318229 0.5 1.12624
0.983194 -0.00359364 0.5 1.12085
0.979871 -0.00404935 0.5 1.11587
0.976149 -0.00455766 0.5 1.11124aaa
0.971946 -0.00512882 0.5 1.10595
0.967167 -0.00577474 0.5 1.09941
0.961704 -0.00650854 0.5 1.09287
0.955448 -0.00734296 0.5 1.08608
0.948306 -0.008288 0.5 1.07852
0.940222 -0.00934793 0.5 1.07035
0.93121 -0.0105177 0.5 1.06295
0.921364 -0.0117817 0.5 1.05587
0.910835 -0.0131174 0.5 1.04861
0.899795 -0.0145004 0.5 1.04148
0.888401 -0.0159093 0.5 1.03495
0.876775 -0.0173279 0.5 1.02836
0.865003 -0.0187451 0.5 1.02244
0.853139 -0.0201537 0.5 1.01661
0.84122 -0.0215496 0.5 1.01096
0.829266 -0.0229301 0.5 1.00544
0.817291 -0.0242937 0.5 0.999912
0.805302 -0.0256397 0.5 0.994769
0.793304 -0.0269675 0.5 0.990384
0.7813 -0.0282768 0.5 0.985173
0.769293 -0.0295674 0.5 0.980131
0.757283 -0.030839 0.5 0.975423
0.745271 -0.0320915 0.5 0.97111
0.733259 -0.0333248 0.5 0.966506
0.721246 -0.0345385 0.5 0.96236
0.709233 -0.0357325 0.5 0.958166
0.697222 -0.0369064 0.5 0.953747
0.685211 -0.03806 0.5 0.948949
0.673203 -0.0391929 0.5 0.944437
0.661197 -0.0403047 0.5 0.939833
0.649194 -0.0413949 0.5 0.93516
0.637194 -0.0424632 0.5 0.930417
0.625198 -0.0435089 0.5 0.926522
0.613207 -0.0445315 0.5 0.921903
0.601221 -0.0455305 0.5 0.917586
0.58924 -0.0465051 0.5 0.913047
0.577265 -0.0474547 0.5 0.908174
0.565296 -0.0483784 0.5 0.90361
0.553335 -0.0492757 0.5 0.899136
0.541382 -0.0501455 0.5 0.894394
0.529437 -0.050987 0.5 0.889612
0.517502 -0.0517993 0.5 0.884877
0.505576 -0.0525814 0.5 0.880324
0.493661 -0.0533322 0.5 0.875651
0.481757 -0.0540507 0.5 0.870095
0.469865 -0.0547356 0.5 0.865712
0.457986 -0.0553858 0.5 0.860111
0.446121 -0.0560001 0.5 0.854742
0.43427 -0.0565769 0.5 0.850314
0.422436 -0.057115 0.5 0.844965
0.410617 -0.0576129 0.5 0.839142
0.398817 -0.0580691 0.5 0.834237
0.387036 -0.0584819 0.5 0.82922
0.375275 -0.0588496 0.5 0.824874
0.363536 -0.0591705 0.5 0.819127
0.35182 -0.0594427 0.5 0.812104
0.340129 -0.0596642 0.5 0.808763
0.328465 -0.0598331 0.5 0.809459
0.316829 -0.0599471 0.5 0.800135
0.305225 -0.0600041 0.5 0.785853
0.293654 -0.0600016 0.5 0.781587
0.282119 -0.0599373 0.5 0.777315
0.270623 -0.0598085 0.5 0.773548
0.25917 -0.0596124 0.5 0.772143
0.247764 -0.0593463 0.5 0.771871
0.23641 -0.0590071 0.5 0.772969
0.225112 -0.0585917 0.5 0.775301
0.213877 -0.0580969 0.5 0.779275
0.202712 -0.0575192 0.5 0.783619
0.191628 -0.0568553 0.5 0.787949
0.180634 -0.0561016 0.5 0.79399
0.169744 -0.0552547 0.5 0.800887
0.158975 -0.0543114 0.5 0.807681
0.148349 -0.0532692 0.5 0.816059
0.137893 -0.052126 0.5 0.825637
0.12764 -0.0508813 0.5 0.834973
0.117631 -0.0495365 0.5 0.845718
0.107919 -0.0480958 0.5 0.858092
0.0985599 -0.046567 0.5 0.870171
0.0896181 -0.0449618 0.5 0.883957
0.0811569 -0.0432962 0.5 0.89852
0.0732325 -0.0415892 0.5 0.913723
0.0658863 -0.0398614 0.5 0.930185
0.0591391 -0.0381327 0.5 0.946896
0.0529893 -0.0364202 0.5 0.9645
0.0474153 -0.0347371 0.5 0.983068
0.0423804 -0.0330918 0.5 1.00152
0.037839 -0.0314889 0.5 1.02092
0.0337425 -0.0299293 0.5 1.0408
0.0300429 -0.0284117 0.5 1.06145
0.0266953 -0.0269333 0.5 1.08269
0.0236597 -0.02549 0.5 1.10485
0.0209008 -0.0240773 0.5 1.12781
0.0183884 -0.0226906 0.5 1.15187
0.0160966 -0.0213252 0.5 1.17695
0.0140039 -0.0199765 0.5 1.20329
0.0120924 -0.0186401 0.5 1.23088
0.0103474 -0.0173119 0.5 1.25985
0.00875716 -0.0159881 0.5 1.29027
0.00731248 -0.0146652 0.5 1.32181
0.00600641 -0.0133402 0.5 1.3542
0.00483403 -0.0120108 0.5 1.38257
0.00379219 -0.0106756 0.5 1.41623
0.00287911 -0.00933401 0.5 1.44587
0.00209395 -0.0079868 0.5 1.47258
0.00143637 -0.00663621 0.5 1.49536
0.000905848 -0.00528614 0.5 1.5118
0.000500793 -0.0039413 0.5 1.52346
0.000218398 -0.00260861 0.5 1.52648
5.37248e-05 -0.00129588 0.5 1.51895
9.09786e-18 0 0.5 1.50594
5.37248e-05 0.00129588 0.5 1.48513
0.000218398 0.00260861 0.5 1.45706
0.000500793 0.0039413 0.5 1.42171
0.000905848 0.00528614 0.5 1.38027
0.00143637 0.00663621 0.5 1.33304
0.00209395 0.0079868 0.5 1.29116
0.00287911 0.00933401 0.5 1.24296
0.00379219 0.0106756 0.5 1.19552
0.00483403 0.0120108 0.5 1.14971
0.00600641 0.0133402 0.5 1.10685
0.00731248 0.0146652 0.5 1.06642
0.00875716 0.0159881 0.5 1.02921
0.0103474 0.0173119 0.5 0.995455
0.0120924 0.0186401 0.5 0.964332
0.0140039 0.0199765 0.5 0.936128
0.0160966 0.0213252 0.5 0.909251
0.0183884 0.0226906 0.5 0.885389
0.0209008 0.0240773 0.5 0.861498
0.0236597 0.02549 0.5 0.841458
0.0266953 0.0269333 0.5 0.819623
0.0300429 0.0284117 0.5 0.802836
0.0337425 0.0299293 0.5 0.782409
0.037839 0.0314889 0.5 0.767689
0.0423804 0.0330918 0.5 0.748861
0.0474153 0.0347371 0.5 0.734853
0.0529893 0.0364202 0.5 0.718971
0.0591391 0.0381327 0.5 0.70368
0.0658863 0.0398614 0.5 0.692403
0.0732325 0.0415892 0.5 0.675932
0.0811569 0.0432962 0.5 0.665607
0.0896181 0.0449618 0.5 0.652712
0.0985599 0.046567 0.5 0.640239
0.107919 0.0480958 0.5 0.632599
0.117631 0.0495365 0.5 0.619773
0.12764 0.0508813 0.5 0.611108
0.137893 0.052126 0.5 0.604284
0.148349 0.0532692 0.5 0.593472
0.158975 0.0543114 0.5 0.586642
0.169744 0.0552547 0.5 0.581692
0.180634 0.0561016 0.5 0.571075
0.191628 0.0568553 0.5 0.566686
0.202712 0.0575192 0.5 0.562014
0.213877 0.0580969 0.5 0.553809
0.225112 0.0585917 0.5 0.548834
0.23641 0.0590071 0.5 0.546595
0.247764 0.0593463 0.5 0.538728
0.25917 0.0596124 0.5 0.534588
0.270623 0.0598085 0.5 0.532246
0.282119 0.0599373 0.5 0.527514
0.293654 0.0600016 0.5 0.523764
0.305225 0.0600041 0.5 0.52094
0.316829 0.0599471 0.5 0.515954
0.328465 0.0598331 0.5 0.513988
0.340129 0.0596642 0.5 0.51145
0.35182 0.0594427 0.5 0.507625
0.363536 0.0591705 0.5 0.505327
0.375275 0.0588496 0.5 0.503416
0.387036 0.0584819 0.5 0.499148
0.398817 0.0580691 0.5 0.497843
0.410617 0.0576129 0.5 0.496408
0.422436 0.057115 0.5 0.49367
0.43427 0.0565769 0.5 0.492609
0.446121 0.0560001 0.5 0.489865
0.457986 0.0553858 0.5 0.48807
0.469865 0.0547356 0.5 0.4872
0.481757 0.0540507 0.5 0.485457
0.493661 0.0533322 0.5 0.4838
0.505576 0.0525814 0.5 0.482955
0.517502 0.0517993 0.5 0.481852
0.529437 0.050987 0.5 0.479869
0.541382 0.0501455 0.5 0.478553
0.553335 0.0492757 0.5 0.477715
0.565296 0.0483784 0.5 0.477358
0.577265 0.0474547 0.5 0.476696
0.58924 0.0465051 0.5 0.475476
0.601221 0.0455305 0.5 0.475028
0.613207 0.0445315 0.5 0.473911
0.625198 0.0435089 0.5 0.472475
0.637194 0.0424632 0.5 0.472369
0.649194 0.0413949 0.5 0.471711
0.661197 0.0403047 0.5 0.4723
0.673203 0.0391929 0.5 0.610651
0.685211 0.03806 0.5 0.952182
0.697222 0.0369064 0.5 1.00638
0.709233 0.0357325 0.5 1.0038
0.721246 0.0345385 0.5 1.00368
0.733259 0.0333248 0.5 1.00589
0.745271 0.0320915 0.5 1.0087
0.757283 0.030839 0.5 1.01017
0.769293 0.0295674 0.5 1.01012
0.7813 0.0282768 0.5 1.01189
0.793304 0.0269675 0.5 1.01528
0.805302 0.0256397 0.5 1.02018
0.817291 0.0242937 0.5 1.02381
0.829266 0.0229301 0.5 1.02673
0.84122 0.0215496 0.5 1.02905
0.853139 0.0201537 0.5 1.03309
0.865003 0.0187451 0.5 1.03841
0.876775 0.0173279 0.5 1.04491
0.888401 0.0159093 0.5 1.05068
0.899795 0.0145004 0.5 1.05608
0.910835 0.0131174 0.5 1.06085
0.921364 0.0117817 0.5 1.06649
0.93121 0.0105177 0.5 1.07248
0.940222 0.00934793 0.5 1.07929
0.948306 0.008288 0.5 1.08658
0.955448 0.00734296 0.5 1.09341
0.961704 0.00650854 0.5 1.10051
0.967167 0.00577474 0.5 1.1078
0.971946 0.00512882 0.5 1.11429
0.976149 0.00455766 0.5 1.11936
0.979871 0.00404935 0.5 1.12449
0.983194 0.00359364 0.5 1.1297
0.986181 0.00318229 0.5 1.13534
0.989039 0.00278739 0.5 1.1409
0.991644 0.0024263 0.5 1.14646
0.993749 0.00213358 0.5 1.15074
0.995451 0.00189636 0.5 1.15348
0.996827 0.00170419 0.5 1.15368
0.99794 0.00154865 0.5 1.14827
0.998835 0.00139797 0.5 1.14101
0.99948 0.00110792 0.5 1.0855
0.999845 0.000663127 0.5 1.13134
0.999981 0.000213631 0.5 1.15809
