# p  FACE_DATA 249
#  x  y  z  p
0.999981 -0.000213631 0.5 1.12474
0.999845 -0.000663127 0.5 1.1076
0.99948 -0.00110792 0.5 1.0838
0.998835 -0.00139797 0.5 1.13802
0.99794 -0.00154865 0.5 1.12958
0.996827 -0.00170419 0.5 1.12958
0.995451 -0.00189636 0.5 1.12977
0.993749 -0.00213358 0.5 1.12772
0.991644 -0.0024263 0.5 1.12473
0.989039 -0.00278739 0.5 1.12053
0.986181 -0.00318229 0.5 1.11633
0.983194 -0.00359364 0.5 1.11206
0.979871 -0.00404935 0.5 1.10735
0.976149 -0.00455766 0.5 1.10216
0.971946 -0.00512882 0.5 1.09638
0.967167 -0.00577474 0.5 1.09014
0.961704 -0.00650854 0.5 1.08391
0.955448 -0.00734296 0.5 1.07729
0.948306 -0.008288 0.5 1.07055
0.940222 -0.00934793 0.5 1.06337
0.93121 -0.0105177 0.5 1.05569
0.921364 -0.0117817 0.5 1.04724
0.910835 -0.0131174 0.5 1.03908
0.899795 -0.0145004 0.5 1.0307
0.888401 -0.0159093 0.5 1.02354
0.876775 -0.0173279 0.5 1.01765
0.865003 -0.0187451 0.5 1.01174
0.853139 -0.0201537 0.5 1.00804
0.84122 -0.0215496 0.5 1.00476
0.829266 -0.0229301 0.5 1.00045
0.817291 -0.0242937 0.5 0.994641
0.805302 -0.0256397 0.5 0.989482
0.793304 -0.0269675 0.5 0.98236
0.7813 -0.0282768 0.5 0.975279
0.769293 -0.0295674 0.5 0.969353
0.757283 -0.030839 0.5 0.964699
0.745271 -0.0320915 0.5 0.960732
0.733259 -0.0333248 0.5 0.956185
0.721246 -0.0345385 0.5 0.952826
0.709233 -0.0357325 0.5 0.94994
0.697222 -0.0369064 0.5 0.946866
0.685211 -0.03806 0.5 0.943046
0.673203 -0.0391929 0.5 0.938558
0.661197 -0.0403047 0.5 0.933987
0.649194 -0.0413949 0.5 0.929227
0.637194 -0.0424632 0.5 0.924868
0.625198 -0.0435089 0.5 0.920651
0.613207 -0.0445315 0.5 0.916287
0.601221 -0.0455305 0.5 0.911215
0.58924 -0.0465051 0.5 0.906366
0.577265 -0.0474547 0.5 0.899582
0.565296 -0.0483784 0.5 0.892822
0.553335 -0.0492757 0.5 0.887492
0.541382 -0.0501455 0.5 0.882664
0.529437 -0.050987 0.5 0.877524
0.517502 -0.0517993 0.5 0.87229
0.505576 -0.0525814 0.5 0.867335
0.493661 -0.0533322 0.5 0.862613
0.481757 -0.0540507 0.5 0.857863
0.469865 -0.0547356 0.5 0.853528
0.457986 -0.0553858 0.5 0.849732
0.446121 -0.0560001 0.5 0.845827
0.43427 -0.0565769 0.5 0.840922
0.422436 -0.057115 0.5 0.834968
0.410617 -0.0576129 0.5 0.827658
0.398817 -0.0580691 0.5 0.819429
0.387036 -0.0584819 0.5 0.813009
0.375275 -0.0588496 0.5 0.807412
0.363536 -0.0591705 0.5 0.801281
0.35182 -0.0594427 0.5 0.795831
0.340129 -0.0596642 0.5 0.790442
0.328465 -0.0598331 0.5 0.78516
0.316829 -0.0599471 0.5 0.781739
0.305225 -0.0600041 0.5 0.787313
0.293654 -0.0600016 0.5 0.78429
0.282119 -0.0599373 0.5 0.74041
0.270623 -0.0598085 0.5 0.721956
0.25917 -0.0596124 0.5 0.718751
0.247764 -0.0593463 0.5 0.720602
0.23641 -0.0590071 0.5 0.723084
0.225112 -0.0585917 0.5 0.723548
0.213877 -0.0580969 0.5 0.722879
0.202712 -0.0575192 0.5 0.726075
0.191628 -0.0568553 0.5 0.733024
0.180634 -0.0561016 0.5 0.73977
0.169744 -0.0552547 0.5 0.742894
0.158975 -0.0543114 0.5 0.747718
0.148349 -0.0532692 0.5 0.755938
0.137893 -0.052126 0.5 0.765973
0.12764 -0.0508813 0.5 0.772008
0.117631 -0.0495365 0.5 0.781312
0.107919 -0.0480958 0.5 0.794762
0.0985599 -0.046567 0.5 0.803084
0.0896181 -0.0449618 0.5 0.815797
0.0811569 -0.0432962 0.5 0.829978
0.0732325 -0.0415892 0.5 0.842642
0.0658863 -0.0398614 0.5 0.858313
0.0591391 -0.0381327 0.5 0.873232
0.0529893 -0.0364202 0.5 0.889816
0.0474153 -0.0347371 0.5 0.906101
0.0423804 -0.0330918 0.5 0.923554
0.037839 -0.0314889 0.5 0.941029
0.0337425 -0.0299293 0.5 0.95947
0.0300429 -0.0284117 0.5 0.979293
0.0266953 -0.0269333 0.5 0.999359
0.0236597 -0.02549 0.5 1.01803
0.0209008 -0.0240773 0.5 1.04121
0.0183884 -0.0226906 0.5 1.06742
0.0160966 -0.0213252 0.5 1.09008
0.0140039 -0.0199765 0.5 1.11782
0.0120924 -0.0186401 0.5 1.14357
0.0103474 -0.0173119 0.5 1.17231
0.00875716 -0.0159881 0.5 1.20265
0.00731248 -0.0146652 0.5 1.23487
0.00600641 -0.0133402 0.5 1.26868
0.00483403 -0.0120108 0.5 1.30376
0.00379219 -0.0106756 0.5 1.33396
0.00287911 -0.00933401 0.5 1.36986
0.00209395 -0.0079868 0.5 1.40213
0.00143637 -0.00663621 0.5 1.43088
0.000905848 -0.00528614 0.5 1.45503
0.000500793 -0.0039413 0.5 1.47281
0.000218398 -0.00260861 0.5 1.48485
5.37248e-05 -0.00129588 0.5 1.48848
9.09786e-18 0 0.5 1.48235
5.37248e-05 0.00129588 0.5 1.4699
0.000218398 0.00260861 0.5 1.45046
0.000500793 0.0039413 0.5 1.42389
0.000905848 0.00528614 0.5 1.39116
0.00143637 0.00663621 0.5 1.35332
0.00209395 0.0079868 0.5 1.31083
0.00287911 0.00933401 0.5 1.27412
0.00379219 0.0106756 0.5 1.23153
0.00483403 0.0120108 0.5 1.19013
0.00600641 0.0133402 0.5 1.15066
0.00731248 0.0146652 0.5 1.11386
0.00875716 0.0159881 0.5 1.07925
0.0103474 0.0173119 0.5 1.04798
0.0120924 0.0186401 0.5 1.01565
0.0140039 0.0199765 0.5 0.990643
0.0160966 0.0213252 0.5 0.962241
0.0183884 0.0226906 0.5 0.932929
0.0209008 0.0240773 0.5 0.913559
0.0236597 0.02549 0.5 0.894751
0.0266953 0.0269333 0.5 0.873146
0.0300429 0.0284117 0.5 0.854072
0.0337425 0.0299293 0.5 0.836052
0.037839 0.0314889 0.5 0.820383
0.0423804 0.0330918 0.5 0.802167
0.0474153 0.0347371 0.5 0.786276
0.0529893 0.0364202 0.5 0.773887
0.0591391 0.0381327 0.5 0.754515
0.0658863 0.0398614 0.5 0.742722
0.0732325 0.0415892 0.5 0.727409
0.0811569 0.0432962 0.5 0.716487
0.0896181 0.0449618 0.5 0.703996
0.0985599 0.046567 0.5 0.691462
0.107919 0.0480958 0.5 0.682944
0.117631 0.0495365 0.5 0.671624
0.12764 0.0508813 0.5 0.660001
0.137893 0.052126 0.5 0.652813
0.148349 0.0532692 0.5 0.649101
0.158975 0.0543114 0.5 0.638096
0.169744 0.0552547 0.5 0.628442
0.180634 0.0561016 0.5 0.625614
0.191628 0.0568553 0.5 0.619701
0.202712 0.0575192 0.5 0.609181
0.213877 0.0580969 0.5 0.605953
0.225112 0.0585917 0.5 0.605664
0.23641 0.0590071 0.5 0.599696
0.247764 0.0593463 0.5 0.590497
0.25917 0.0596124 0.5 0.587672
0.270623 0.0598085 0.5 0.586136
0.282119 0.0599373 0.5 0.585244
0.293654 0.0600016 0.5 0.580175
0.305225 0.0600041 0.5 0.575357
0.316829 0.0599471 0.5 0.572242
0.328465 0.0598331 0.5 0.570425
0.340129 0.0596642 0.5 0.571536
0.35182 0.0594427 0.5 0.569889
0.363536 0.0591705 0.5 0.567382
0.375275 0.0588496 0.5 0.56315
0.387036 0.0584819 0.5 0.560878
0.398817 0.0580691 0.5 0.560959
0.410617 0.0576129 0.5 0.56275
0.422436 0.057115 0.5 0.56287
0.43427 0.0565769 0.5 0.562003
0.446121 0.0560001 0.5 0.569147
0.457986 0.0553858 0.5 0.708028
0.469865 0.0547356 0.5 0.881893
0.481757 0.0540507 0.5 0.912166
0.493661 0.0533322 0.5 0.91283
0.505576 0.0525814 0.5 0.912622
0.517502 0.0517993 0.5 0.912982
0.529437 0.050987 0.5 0.912751
0.541382 0.0501455 0.5 0.911767
0.553335 0.0492757 0.5 0.910826
0.565296 0.0483784 0.5 0.910517
0.577265 0.0474547 0.5 0.910815
0.58924 0.0465051 0.5 0.912825
0.601221 0.0455305 0.5 0.915101
0.613207 0.0445315 0.5 0.917079
0.625198 0.0435089 0.5 0.920165
0.637194 0.0424632 0.5 0.924841
0.649194 0.0413949 0.5 0.929651
0.661197 0.0403047 0.5 0.935116
0.673203 0.0391929 0.5 0.941001
0.685211 0.03806 0.5 0.946073
0.697222 0.0369064 0.5 0.950456
0.709233 0.0357325 0.5 0.954341
0.721246 0.0345385 0.5 0.958482
0.733259 0.0333248 0.5 0.963015
0.745271 0.0320915 0.5 0.967559
0.757283 0.030839 0.5 0.971833
0.769293 0.0295674 0.5 0.976481
0.7813 0.0282768 0.5 0.980476
0.793304 0.0269675 0.5 0.984618
0.805302 0.0256397 0.5 0.989026
0.817291 0.0242937 0.5 0.993314
0.829266 0.0229301 0.5 0.996959
0.84122 0.0215496 0.5 1.00127
0.853139 0.0201537 0.5 1.00761
0.865003 0.0187451 0.5 1.01596
0.876775 0.0173279 0.5 1.02225
0.888401 0.0159093 0.5 1.0266
0.899795 0.0145004 0.5 1.03145
0.910835 0.0131174 0.5 1.04103
0.921364 0.0117817 0.5 1.052
0.93121 0.0105177 0.5 1.05885
0.940222 0.00934793 0.5 1.06252
0.948306 0.008288 0.5 1.06722
0.955448 0.00734296 0.5 1.07403
0.961704 0.00650854 0.5 1.08168
0.967167 0.00577474 0.5 1.08816
0.971946 0.00512882 0.5 1.0941
0.976149 0.00455766 0.5 1.09985
0.979871 0.00404935 0.5 1.10582
0.983194 0.00359364 0.5 1.11197
0.986181 0.00318229 0.5 1.11825
0.989039 0.00278739 0.5 1.12187
0.991644 0.0024263 0.5 1.12496
0.993749 0.00213358 0.5 1.12728
0.995451 0.00189636 0.5 1.12875
0.996827 0.00170419 0.5 1.12884
0.99794 0.00154865 0.5 1.12963
0.998835 0.00139797 0.5 1.13648
0.99948 0.00110792 0.5 1.07835
0.999845 0.000663127 0.5 1.10693
0.999981 0.000213631 0.5 1.11698
